+ 0 0 2 cbr 512 ------- 0 0.0 3.0 0 0
- 0 0 2 cbr 512 ------- 0 0.0 3.0 0 0
+ 0.001 0 2 cbr 512 ------- 0 0.0 3.0 1 1
- 0.001 0 2 cbr 512 ------- 0 0.0 3.0 1 1
+ 0.002 0 2 cbr 512 ------- 0 0.0 3.0 2 2
- 0.002 0 2 cbr 512 ------- 0 0.0 3.0 2 2
+ 0.003 0 2 cbr 512 ------- 0 0.0 3.0 3 3
- 0.003 0 2 cbr 512 ------- 0 0.0 3.0 3 3
+ 0.004 0 2 cbr 512 ------- 0 0.0 3.0 4 4
- 0.004 0 2 cbr 512 ------- 0 0.0 3.0 4 4
+ 0.005 0 2 cbr 512 ------- 0 0.0 3.0 5 5
- 0.005 0 2 cbr 512 ------- 0 0.0 3.0 5 5
+ 0.006 0 2 cbr 512 ------- 0 0.0 3.0 6 6
- 0.006 0 2 cbr 512 ------- 0 0.0 3.0 6 6
+ 0.007 0 2 cbr 512 ------- 0 0.0 3.0 7 7
- 0.007 0 2 cbr 512 ------- 0 0.0 3.0 7 7
+ 0.008 0 2 cbr 512 ------- 0 0.0 3.0 8 8
- 0.008 0 2 cbr 512 ------- 0 0.0 3.0 8 8
+ 0.009 0 2 cbr 512 ------- 0 0.0 3.0 9 9
- 0.009 0 2 cbr 512 ------- 0 0.0 3.0 9 9
+ 0.01 0 2 cbr 512 ------- 0 0.0 3.0 10 10
- 0.01 0 2 cbr 512 ------- 0 0.0 3.0 10 10
r 0.010205 0 2 cbr 512 ------- 0 0.0 3.0 0 0
+ 0.010205 2 3 cbr 512 ------- 0 0.0 3.0 0 0
- 0.010205 2 3 cbr 512 ------- 0 0.0 3.0 0 0
+ 0.011 0 2 cbr 512 ------- 0 0.0 3.0 11 11
- 0.011 0 2 cbr 512 ------- 0 0.0 3.0 11 11
r 0.011205 0 2 cbr 512 ------- 0 0.0 3.0 1 1
+ 0.011205 2 3 cbr 512 ------- 0 0.0 3.0 1 1
+ 0.012 0 2 cbr 512 ------- 0 0.0 3.0 12 12
- 0.012 0 2 cbr 512 ------- 0 0.0 3.0 12 12
r 0.012205 0 2 cbr 512 ------- 0 0.0 3.0 2 2
+ 0.012205 2 3 cbr 512 ------- 0 0.0 3.0 2 2
+ 0.013 0 2 cbr 512 ------- 0 0.0 3.0 13 13
- 0.013 0 2 cbr 512 ------- 0 0.0 3.0 13 13
r 0.013205 0 2 cbr 512 ------- 0 0.0 3.0 3 3
+ 0.013205 2 3 cbr 512 ------- 0 0.0 3.0 3 3
+ 0.014 0 2 cbr 512 ------- 0 0.0 3.0 14 14
- 0.014 0 2 cbr 512 ------- 0 0.0 3.0 14 14
r 0.014205 0 2 cbr 512 ------- 0 0.0 3.0 4 4
+ 0.014205 2 3 cbr 512 ------- 0 0.0 3.0 4 4
+ 0.015 0 2 cbr 512 ------- 0 0.0 3.0 15 15
- 0.015 0 2 cbr 512 ------- 0 0.0 3.0 15 15
r 0.015205 0 2 cbr 512 ------- 0 0.0 3.0 5 5
+ 0.015205 2 3 cbr 512 ------- 0 0.0 3.0 5 5
+ 0.016 0 2 cbr 512 ------- 0 0.0 3.0 16 16
- 0.016 0 2 cbr 512 ------- 0 0.0 3.0 16 16
- 0.016056 2 3 cbr 512 ------- 0 0.0 3.0 1 1
r 0.016205 0 2 cbr 512 ------- 0 0.0 3.0 6 6
+ 0.016205 2 3 cbr 512 ------- 0 0.0 3.0 6 6
+ 0.017 0 2 cbr 512 ------- 0 0.0 3.0 17 17
- 0.017 0 2 cbr 512 ------- 0 0.0 3.0 17 17
r 0.017205 0 2 cbr 512 ------- 0 0.0 3.0 7 7
+ 0.017205 2 3 cbr 512 ------- 0 0.0 3.0 7 7
+ 0.018 0 2 cbr 512 ------- 0 0.0 3.0 18 18
- 0.018 0 2 cbr 512 ------- 0 0.0 3.0 18 18
r 0.018205 0 2 cbr 512 ------- 0 0.0 3.0 8 8
+ 0.018205 2 3 cbr 512 ------- 0 0.0 3.0 8 8
+ 0.019 0 2 cbr 512 ------- 0 0.0 3.0 19 19
- 0.019 0 2 cbr 512 ------- 0 0.0 3.0 19 19
r 0.019205 0 2 cbr 512 ------- 0 0.0 3.0 9 9
+ 0.019205 2 3 cbr 512 ------- 0 0.0 3.0 9 9
+ 0.02 0 2 cbr 512 ------- 0 0.0 3.0 20 20
- 0.02 0 2 cbr 512 ------- 0 0.0 3.0 20 20
r 0.020205 0 2 cbr 512 ------- 0 0.0 3.0 10 10
+ 0.020205 2 3 cbr 512 ------- 0 0.0 3.0 10 10
+ 0.021 0 2 cbr 512 ------- 0 0.0 3.0 21 21
- 0.021 0 2 cbr 512 ------- 0 0.0 3.0 21 21
r 0.021205 0 2 cbr 512 ------- 0 0.0 3.0 11 11
+ 0.021205 2 3 cbr 512 ------- 0 0.0 3.0 11 11
- 0.021908 2 3 cbr 512 ------- 0 0.0 3.0 2 2
+ 0.022 0 2 cbr 512 ------- 0 0.0 3.0 22 22
- 0.022 0 2 cbr 512 ------- 0 0.0 3.0 22 22
r 0.022205 0 2 cbr 512 ------- 0 0.0 3.0 12 12
+ 0.022205 2 3 cbr 512 ------- 0 0.0 3.0 12 12
+ 0.023 0 2 cbr 512 ------- 0 0.0 3.0 23 23
- 0.023 0 2 cbr 512 ------- 0 0.0 3.0 23 23
r 0.023205 0 2 cbr 512 ------- 0 0.0 3.0 13 13
+ 0.023205 2 3 cbr 512 ------- 0 0.0 3.0 13 13
+ 0.024 0 2 cbr 512 ------- 0 0.0 3.0 24 24
- 0.024 0 2 cbr 512 ------- 0 0.0 3.0 24 24
r 0.024205 0 2 cbr 512 ------- 0 0.0 3.0 14 14
+ 0.024205 2 3 cbr 512 ------- 0 0.0 3.0 14 14
+ 0.025 0 2 cbr 512 ------- 0 0.0 3.0 25 25
- 0.025 0 2 cbr 512 ------- 0 0.0 3.0 25 25
r 0.025205 0 2 cbr 512 ------- 0 0.0 3.0 15 15
+ 0.025205 2 3 cbr 512 ------- 0 0.0 3.0 15 15
+ 0.026 0 2 cbr 512 ------- 0 0.0 3.0 26 26
- 0.026 0 2 cbr 512 ------- 0 0.0 3.0 26 26
r 0.026056 2 3 cbr 512 ------- 0 0.0 3.0 0 0
r 0.026205 0 2 cbr 512 ------- 0 0.0 3.0 16 16
+ 0.026205 2 3 cbr 512 ------- 0 0.0 3.0 16 16
+ 0.027 0 2 cbr 512 ------- 0 0.0 3.0 27 27
- 0.027 0 2 cbr 512 ------- 0 0.0 3.0 27 27
r 0.027205 0 2 cbr 512 ------- 0 0.0 3.0 17 17
+ 0.027205 2 3 cbr 512 ------- 0 0.0 3.0 17 17
- 0.027759 2 3 cbr 512 ------- 0 0.0 3.0 3 3
+ 0.028 0 2 cbr 512 ------- 0 0.0 3.0 28 28
- 0.028 0 2 cbr 512 ------- 0 0.0 3.0 28 28
r 0.028205 0 2 cbr 512 ------- 0 0.0 3.0 18 18
+ 0.028205 2 3 cbr 512 ------- 0 0.0 3.0 18 18
+ 0.029 0 2 cbr 512 ------- 0 0.0 3.0 29 29
- 0.029 0 2 cbr 512 ------- 0 0.0 3.0 29 29
r 0.029205 0 2 cbr 512 ------- 0 0.0 3.0 19 19
+ 0.029205 2 3 cbr 512 ------- 0 0.0 3.0 19 19
+ 0.03 0 2 cbr 512 ------- 0 0.0 3.0 30 30
- 0.03 0 2 cbr 512 ------- 0 0.0 3.0 30 30
r 0.030205 0 2 cbr 512 ------- 0 0.0 3.0 20 20
+ 0.030205 2 3 cbr 512 ------- 0 0.0 3.0 20 20
+ 0.031 0 2 cbr 512 ------- 0 0.0 3.0 31 31
- 0.031 0 2 cbr 512 ------- 0 0.0 3.0 31 31
r 0.031205 0 2 cbr 512 ------- 0 0.0 3.0 21 21
+ 0.031205 2 3 cbr 512 ------- 0 0.0 3.0 21 21
r 0.031908 2 3 cbr 512 ------- 0 0.0 3.0 1 1
+ 0.032 0 2 cbr 512 ------- 0 0.0 3.0 32 32
- 0.032 0 2 cbr 512 ------- 0 0.0 3.0 32 32
r 0.032205 0 2 cbr 512 ------- 0 0.0 3.0 22 22
+ 0.032205 2 3 cbr 512 ------- 0 0.0 3.0 22 22
+ 0.033 0 2 cbr 512 ------- 0 0.0 3.0 33 33
- 0.033 0 2 cbr 512 ------- 0 0.0 3.0 33 33
r 0.033205 0 2 cbr 512 ------- 0 0.0 3.0 23 23
+ 0.033205 2 3 cbr 512 ------- 0 0.0 3.0 23 23
- 0.033611 2 3 cbr 512 ------- 0 0.0 3.0 4 4
+ 0.034 0 2 cbr 512 ------- 0 0.0 3.0 34 34
- 0.034 0 2 cbr 512 ------- 0 0.0 3.0 34 34
r 0.034205 0 2 cbr 512 ------- 0 0.0 3.0 24 24
+ 0.034205 2 3 cbr 512 ------- 0 0.0 3.0 24 24
+ 0.035 0 2 cbr 512 ------- 0 0.0 3.0 35 35
- 0.035 0 2 cbr 512 ------- 0 0.0 3.0 35 35
r 0.035205 0 2 cbr 512 ------- 0 0.0 3.0 25 25
+ 0.035205 2 3 cbr 512 ------- 0 0.0 3.0 25 25
+ 0.036 0 2 cbr 512 ------- 0 0.0 3.0 36 36
- 0.036 0 2 cbr 512 ------- 0 0.0 3.0 36 36
r 0.036205 0 2 cbr 512 ------- 0 0.0 3.0 26 26
+ 0.036205 2 3 cbr 512 ------- 0 0.0 3.0 26 26
+ 0.037 0 2 cbr 512 ------- 0 0.0 3.0 37 37
- 0.037 0 2 cbr 512 ------- 0 0.0 3.0 37 37
r 0.037205 0 2 cbr 512 ------- 0 0.0 3.0 27 27
+ 0.037205 2 3 cbr 512 ------- 0 0.0 3.0 27 27
r 0.037759 2 3 cbr 512 ------- 0 0.0 3.0 2 2
+ 0.038 0 2 cbr 512 ------- 0 0.0 3.0 38 38
- 0.038 0 2 cbr 512 ------- 0 0.0 3.0 38 38
r 0.038205 0 2 cbr 512 ------- 0 0.0 3.0 28 28
+ 0.038205 2 3 cbr 512 ------- 0 0.0 3.0 28 28
+ 0.039 0 2 cbr 512 ------- 0 0.0 3.0 39 39
- 0.039 0 2 cbr 512 ------- 0 0.0 3.0 39 39
r 0.039205 0 2 cbr 512 ------- 0 0.0 3.0 29 29
+ 0.039205 2 3 cbr 512 ------- 0 0.0 3.0 29 29
- 0.039462 2 3 cbr 512 ------- 0 0.0 3.0 5 5
+ 0.04 0 2 cbr 512 ------- 0 0.0 3.0 40 40
- 0.04 0 2 cbr 512 ------- 0 0.0 3.0 40 40
r 0.040205 0 2 cbr 512 ------- 0 0.0 3.0 30 30
+ 0.040205 2 3 cbr 512 ------- 0 0.0 3.0 30 30
+ 0.041 0 2 cbr 512 ------- 0 0.0 3.0 41 41
- 0.041 0 2 cbr 512 ------- 0 0.0 3.0 41 41
r 0.041205 0 2 cbr 512 ------- 0 0.0 3.0 31 31
+ 0.041205 2 3 cbr 512 ------- 0 0.0 3.0 31 31
+ 0.042 0 2 cbr 512 ------- 0 0.0 3.0 42 42
- 0.042 0 2 cbr 512 ------- 0 0.0 3.0 42 42
r 0.042205 0 2 cbr 512 ------- 0 0.0 3.0 32 32
+ 0.042205 2 3 cbr 512 ------- 0 0.0 3.0 32 32
+ 0.043 0 2 cbr 512 ------- 0 0.0 3.0 43 43
- 0.043 0 2 cbr 512 ------- 0 0.0 3.0 43 43
r 0.043205 0 2 cbr 512 ------- 0 0.0 3.0 33 33
+ 0.043205 2 3 cbr 512 ------- 0 0.0 3.0 33 33
r 0.043611 2 3 cbr 512 ------- 0 0.0 3.0 3 3
+ 0.044 0 2 cbr 512 ------- 0 0.0 3.0 44 44
- 0.044 0 2 cbr 512 ------- 0 0.0 3.0 44 44
r 0.044205 0 2 cbr 512 ------- 0 0.0 3.0 34 34
+ 0.044205 2 3 cbr 512 ------- 0 0.0 3.0 34 34
+ 0.045 0 2 cbr 512 ------- 0 0.0 3.0 45 45
- 0.045 0 2 cbr 512 ------- 0 0.0 3.0 45 45
r 0.045205 0 2 cbr 512 ------- 0 0.0 3.0 35 35
+ 0.045205 2 3 cbr 512 ------- 0 0.0 3.0 35 35
- 0.045313 2 3 cbr 512 ------- 0 0.0 3.0 6 6
+ 0.046 0 2 cbr 512 ------- 0 0.0 3.0 46 46
- 0.046 0 2 cbr 512 ------- 0 0.0 3.0 46 46
r 0.046205 0 2 cbr 512 ------- 0 0.0 3.0 36 36
+ 0.046205 2 3 cbr 512 ------- 0 0.0 3.0 36 36
+ 0.047 0 2 cbr 512 ------- 0 0.0 3.0 47 47
- 0.047 0 2 cbr 512 ------- 0 0.0 3.0 47 47
r 0.047205 0 2 cbr 512 ------- 0 0.0 3.0 37 37
+ 0.047205 2 3 cbr 512 ------- 0 0.0 3.0 37 37
+ 0.048 0 2 cbr 512 ------- 0 0.0 3.0 48 48
- 0.048 0 2 cbr 512 ------- 0 0.0 3.0 48 48
r 0.048205 0 2 cbr 512 ------- 0 0.0 3.0 38 38
+ 0.048205 2 3 cbr 512 ------- 0 0.0 3.0 38 38
+ 0.049 0 2 cbr 512 ------- 0 0.0 3.0 49 49
- 0.049 0 2 cbr 512 ------- 0 0.0 3.0 49 49
r 0.049205 0 2 cbr 512 ------- 0 0.0 3.0 39 39
+ 0.049205 2 3 cbr 512 ------- 0 0.0 3.0 39 39
r 0.049462 2 3 cbr 512 ------- 0 0.0 3.0 4 4
+ 0.05 0 2 cbr 512 ------- 0 0.0 3.0 50 50
- 0.05 0 2 cbr 512 ------- 0 0.0 3.0 50 50
r 0.050205 0 2 cbr 512 ------- 0 0.0 3.0 40 40
+ 0.050205 2 3 cbr 512 ------- 0 0.0 3.0 40 40
+ 0.051 0 2 cbr 512 ------- 0 0.0 3.0 51 51
- 0.051 0 2 cbr 512 ------- 0 0.0 3.0 51 51
- 0.051165 2 3 cbr 512 ------- 0 0.0 3.0 7 7
r 0.051205 0 2 cbr 512 ------- 0 0.0 3.0 41 41
+ 0.051205 2 3 cbr 512 ------- 0 0.0 3.0 41 41
+ 0.052 0 2 cbr 512 ------- 0 0.0 3.0 52 52
- 0.052 0 2 cbr 512 ------- 0 0.0 3.0 52 52
r 0.052205 0 2 cbr 512 ------- 0 0.0 3.0 42 42
+ 0.052205 2 3 cbr 512 ------- 0 0.0 3.0 42 42
+ 0.053 0 2 cbr 512 ------- 0 0.0 3.0 53 53
- 0.053 0 2 cbr 512 ------- 0 0.0 3.0 53 53
r 0.053205 0 2 cbr 512 ------- 0 0.0 3.0 43 43
+ 0.053205 2 3 cbr 512 ------- 0 0.0 3.0 43 43
+ 0.054 0 2 cbr 512 ------- 0 0.0 3.0 54 54
- 0.054 0 2 cbr 512 ------- 0 0.0 3.0 54 54
r 0.054205 0 2 cbr 512 ------- 0 0.0 3.0 44 44
+ 0.054205 2 3 cbr 512 ------- 0 0.0 3.0 44 44
+ 0.055 0 2 cbr 512 ------- 0 0.0 3.0 55 55
- 0.055 0 2 cbr 512 ------- 0 0.0 3.0 55 55
r 0.055205 0 2 cbr 512 ------- 0 0.0 3.0 45 45
+ 0.055205 2 3 cbr 512 ------- 0 0.0 3.0 45 45
r 0.055313 2 3 cbr 512 ------- 0 0.0 3.0 5 5
+ 0.056 0 2 cbr 512 ------- 0 0.0 3.0 56 56
- 0.056 0 2 cbr 512 ------- 0 0.0 3.0 56 56
r 0.056205 0 2 cbr 512 ------- 0 0.0 3.0 46 46
+ 0.056205 2 3 cbr 512 ------- 0 0.0 3.0 46 46
+ 0.057 0 2 cbr 512 ------- 0 0.0 3.0 57 57
- 0.057 0 2 cbr 512 ------- 0 0.0 3.0 57 57
- 0.057016 2 3 cbr 512 ------- 0 0.0 3.0 8 8
r 0.057205 0 2 cbr 512 ------- 0 0.0 3.0 47 47
+ 0.057205 2 3 cbr 512 ------- 0 0.0 3.0 47 47
+ 0.058 0 2 cbr 512 ------- 0 0.0 3.0 58 58
- 0.058 0 2 cbr 512 ------- 0 0.0 3.0 58 58
r 0.058205 0 2 cbr 512 ------- 0 0.0 3.0 48 48
+ 0.058205 2 3 cbr 512 ------- 0 0.0 3.0 48 48
+ 0.059 0 2 cbr 512 ------- 0 0.0 3.0 59 59
- 0.059 0 2 cbr 512 ------- 0 0.0 3.0 59 59
r 0.059205 0 2 cbr 512 ------- 0 0.0 3.0 49 49
+ 0.059205 2 3 cbr 512 ------- 0 0.0 3.0 49 49
+ 0.06 0 2 cbr 512 ------- 0 0.0 3.0 60 60
- 0.06 0 2 cbr 512 ------- 0 0.0 3.0 60 60
r 0.060205 0 2 cbr 512 ------- 0 0.0 3.0 50 50
+ 0.060205 2 3 cbr 512 ------- 0 0.0 3.0 50 50
+ 0.061 0 2 cbr 512 ------- 0 0.0 3.0 61 61
- 0.061 0 2 cbr 512 ------- 0 0.0 3.0 61 61
r 0.061165 2 3 cbr 512 ------- 0 0.0 3.0 6 6
r 0.061205 0 2 cbr 512 ------- 0 0.0 3.0 51 51
+ 0.061205 2 3 cbr 512 ------- 0 0.0 3.0 51 51
+ 0.062 0 2 cbr 512 ------- 0 0.0 3.0 62 62
- 0.062 0 2 cbr 512 ------- 0 0.0 3.0 62 62
r 0.062205 0 2 cbr 512 ------- 0 0.0 3.0 52 52
+ 0.062205 2 3 cbr 512 ------- 0 0.0 3.0 52 52
- 0.062868 2 3 cbr 512 ------- 0 0.0 3.0 9 9
+ 0.063 0 2 cbr 512 ------- 0 0.0 3.0 63 63
- 0.063 0 2 cbr 512 ------- 0 0.0 3.0 63 63
r 0.063205 0 2 cbr 512 ------- 0 0.0 3.0 53 53
+ 0.063205 2 3 cbr 512 ------- 0 0.0 3.0 53 53
+ 0.064 0 2 cbr 512 ------- 0 0.0 3.0 64 64
- 0.064 0 2 cbr 512 ------- 0 0.0 3.0 64 64
r 0.064205 0 2 cbr 512 ------- 0 0.0 3.0 54 54
+ 0.064205 2 3 cbr 512 ------- 0 0.0 3.0 54 54
+ 0.065 0 2 cbr 512 ------- 0 0.0 3.0 65 65
- 0.065 0 2 cbr 512 ------- 0 0.0 3.0 65 65
r 0.065205 0 2 cbr 512 ------- 0 0.0 3.0 55 55
+ 0.065205 2 3 cbr 512 ------- 0 0.0 3.0 55 55
+ 0.066 0 2 cbr 512 ------- 0 0.0 3.0 66 66
- 0.066 0 2 cbr 512 ------- 0 0.0 3.0 66 66
r 0.066205 0 2 cbr 512 ------- 0 0.0 3.0 56 56
+ 0.066205 2 3 cbr 512 ------- 0 0.0 3.0 56 56
+ 0.067 0 2 cbr 512 ------- 0 0.0 3.0 67 67
- 0.067 0 2 cbr 512 ------- 0 0.0 3.0 67 67
r 0.067016 2 3 cbr 512 ------- 0 0.0 3.0 7 7
r 0.067205 0 2 cbr 512 ------- 0 0.0 3.0 57 57
+ 0.067205 2 3 cbr 512 ------- 0 0.0 3.0 57 57
+ 0.068 0 2 cbr 512 ------- 0 0.0 3.0 68 68
- 0.068 0 2 cbr 512 ------- 0 0.0 3.0 68 68
r 0.068205 0 2 cbr 512 ------- 0 0.0 3.0 58 58
+ 0.068205 2 3 cbr 512 ------- 0 0.0 3.0 58 58
- 0.068719 2 3 cbr 512 ------- 0 0.0 3.0 10 10
+ 0.069 0 2 cbr 512 ------- 0 0.0 3.0 69 69
- 0.069 0 2 cbr 512 ------- 0 0.0 3.0 69 69
r 0.069205 0 2 cbr 512 ------- 0 0.0 3.0 59 59
+ 0.069205 2 3 cbr 512 ------- 0 0.0 3.0 59 59
+ 0.07 0 2 cbr 512 ------- 0 0.0 3.0 70 70
- 0.07 0 2 cbr 512 ------- 0 0.0 3.0 70 70
r 0.070205 0 2 cbr 512 ------- 0 0.0 3.0 60 60
+ 0.070205 2 3 cbr 512 ------- 0 0.0 3.0 60 60
d 0.070205 2 3 cbr 512 ------- 0 0.0 3.0 60 60
+ 0.071 0 2 cbr 512 ------- 0 0.0 3.0 71 71
- 0.071 0 2 cbr 512 ------- 0 0.0 3.0 71 71
r 0.071205 0 2 cbr 512 ------- 0 0.0 3.0 61 61
+ 0.071205 2 3 cbr 512 ------- 0 0.0 3.0 61 61
d 0.071205 2 3 cbr 512 ------- 0 0.0 3.0 61 61
+ 0.072 0 2 cbr 512 ------- 0 0.0 3.0 72 72
- 0.072 0 2 cbr 512 ------- 0 0.0 3.0 72 72
r 0.072205 0 2 cbr 512 ------- 0 0.0 3.0 62 62
+ 0.072205 2 3 cbr 512 ------- 0 0.0 3.0 62 62
d 0.072205 2 3 cbr 512 ------- 0 0.0 3.0 62 62
r 0.072868 2 3 cbr 512 ------- 0 0.0 3.0 8 8
+ 0.073 0 2 cbr 512 ------- 0 0.0 3.0 73 73
- 0.073 0 2 cbr 512 ------- 0 0.0 3.0 73 73
r 0.073205 0 2 cbr 512 ------- 0 0.0 3.0 63 63
+ 0.073205 2 3 cbr 512 ------- 0 0.0 3.0 63 63
d 0.073205 2 3 cbr 512 ------- 0 0.0 3.0 63 63
+ 0.074 0 2 cbr 512 ------- 0 0.0 3.0 74 74
- 0.074 0 2 cbr 512 ------- 0 0.0 3.0 74 74
r 0.074205 0 2 cbr 512 ------- 0 0.0 3.0 64 64
+ 0.074205 2 3 cbr 512 ------- 0 0.0 3.0 64 64
d 0.074205 2 3 cbr 512 ------- 0 0.0 3.0 64 64
- 0.074571 2 3 cbr 512 ------- 0 0.0 3.0 11 11
+ 0.075 0 2 cbr 512 ------- 0 0.0 3.0 75 75
- 0.075 0 2 cbr 512 ------- 0 0.0 3.0 75 75
r 0.075205 0 2 cbr 512 ------- 0 0.0 3.0 65 65
+ 0.075205 2 3 cbr 512 ------- 0 0.0 3.0 65 65
+ 0.076 0 2 cbr 512 ------- 0 0.0 3.0 76 76
- 0.076 0 2 cbr 512 ------- 0 0.0 3.0 76 76
r 0.076205 0 2 cbr 512 ------- 0 0.0 3.0 66 66
+ 0.076205 2 3 cbr 512 ------- 0 0.0 3.0 66 66
d 0.076205 2 3 cbr 512 ------- 0 0.0 3.0 66 66
+ 0.077 0 2 cbr 512 ------- 0 0.0 3.0 77 77
- 0.077 0 2 cbr 512 ------- 0 0.0 3.0 77 77
r 0.077205 0 2 cbr 512 ------- 0 0.0 3.0 67 67
+ 0.077205 2 3 cbr 512 ------- 0 0.0 3.0 67 67
d 0.077205 2 3 cbr 512 ------- 0 0.0 3.0 67 67
+ 0.078 0 2 cbr 512 ------- 0 0.0 3.0 78 78
- 0.078 0 2 cbr 512 ------- 0 0.0 3.0 78 78
r 0.078205 0 2 cbr 512 ------- 0 0.0 3.0 68 68
+ 0.078205 2 3 cbr 512 ------- 0 0.0 3.0 68 68
d 0.078205 2 3 cbr 512 ------- 0 0.0 3.0 68 68
r 0.078719 2 3 cbr 512 ------- 0 0.0 3.0 9 9
+ 0.079 0 2 cbr 512 ------- 0 0.0 3.0 79 79
- 0.079 0 2 cbr 512 ------- 0 0.0 3.0 79 79
r 0.079205 0 2 cbr 512 ------- 0 0.0 3.0 69 69
+ 0.079205 2 3 cbr 512 ------- 0 0.0 3.0 69 69
d 0.079205 2 3 cbr 512 ------- 0 0.0 3.0 69 69
+ 0.08 0 2 cbr 512 ------- 0 0.0 3.0 80 80
- 0.08 0 2 cbr 512 ------- 0 0.0 3.0 80 80
r 0.080205 0 2 cbr 512 ------- 0 0.0 3.0 70 70
+ 0.080205 2 3 cbr 512 ------- 0 0.0 3.0 70 70
d 0.080205 2 3 cbr 512 ------- 0 0.0 3.0 70 70
- 0.080422 2 3 cbr 512 ------- 0 0.0 3.0 12 12
+ 0.081 0 2 cbr 512 ------- 0 0.0 3.0 81 81
- 0.081 0 2 cbr 512 ------- 0 0.0 3.0 81 81
r 0.081205 0 2 cbr 512 ------- 0 0.0 3.0 71 71
+ 0.081205 2 3 cbr 512 ------- 0 0.0 3.0 71 71
+ 0.082 0 2 cbr 512 ------- 0 0.0 3.0 82 82
- 0.082 0 2 cbr 512 ------- 0 0.0 3.0 82 82
r 0.082205 0 2 cbr 512 ------- 0 0.0 3.0 72 72
+ 0.082205 2 3 cbr 512 ------- 0 0.0 3.0 72 72
d 0.082205 2 3 cbr 512 ------- 0 0.0 3.0 72 72
+ 0.083 0 2 cbr 512 ------- 0 0.0 3.0 83 83
- 0.083 0 2 cbr 512 ------- 0 0.0 3.0 83 83
r 0.083205 0 2 cbr 512 ------- 0 0.0 3.0 73 73
+ 0.083205 2 3 cbr 512 ------- 0 0.0 3.0 73 73
d 0.083205 2 3 cbr 512 ------- 0 0.0 3.0 73 73
+ 0.084 0 2 cbr 512 ------- 0 0.0 3.0 84 84
- 0.084 0 2 cbr 512 ------- 0 0.0 3.0 84 84
r 0.084205 0 2 cbr 512 ------- 0 0.0 3.0 74 74
+ 0.084205 2 3 cbr 512 ------- 0 0.0 3.0 74 74
d 0.084205 2 3 cbr 512 ------- 0 0.0 3.0 74 74
r 0.084571 2 3 cbr 512 ------- 0 0.0 3.0 10 10
+ 0.085 0 2 cbr 512 ------- 0 0.0 3.0 85 85
- 0.085 0 2 cbr 512 ------- 0 0.0 3.0 85 85
r 0.085205 0 2 cbr 512 ------- 0 0.0 3.0 75 75
+ 0.085205 2 3 cbr 512 ------- 0 0.0 3.0 75 75
d 0.085205 2 3 cbr 512 ------- 0 0.0 3.0 75 75
+ 0.086 0 2 cbr 512 ------- 0 0.0 3.0 86 86
- 0.086 0 2 cbr 512 ------- 0 0.0 3.0 86 86
r 0.086205 0 2 cbr 512 ------- 0 0.0 3.0 76 76
+ 0.086205 2 3 cbr 512 ------- 0 0.0 3.0 76 76
d 0.086205 2 3 cbr 512 ------- 0 0.0 3.0 76 76
- 0.086273 2 3 cbr 512 ------- 0 0.0 3.0 13 13
+ 0.087 0 2 cbr 512 ------- 0 0.0 3.0 87 87
- 0.087 0 2 cbr 512 ------- 0 0.0 3.0 87 87
r 0.087205 0 2 cbr 512 ------- 0 0.0 3.0 77 77
+ 0.087205 2 3 cbr 512 ------- 0 0.0 3.0 77 77
+ 0.088 0 2 cbr 512 ------- 0 0.0 3.0 88 88
- 0.088 0 2 cbr 512 ------- 0 0.0 3.0 88 88
r 0.088205 0 2 cbr 512 ------- 0 0.0 3.0 78 78
+ 0.088205 2 3 cbr 512 ------- 0 0.0 3.0 78 78
d 0.088205 2 3 cbr 512 ------- 0 0.0 3.0 78 78
+ 0.089 0 2 cbr 512 ------- 0 0.0 3.0 89 89
- 0.089 0 2 cbr 512 ------- 0 0.0 3.0 89 89
r 0.089205 0 2 cbr 512 ------- 0 0.0 3.0 79 79
+ 0.089205 2 3 cbr 512 ------- 0 0.0 3.0 79 79
d 0.089205 2 3 cbr 512 ------- 0 0.0 3.0 79 79
+ 0.09 0 2 cbr 512 ------- 0 0.0 3.0 90 90
- 0.09 0 2 cbr 512 ------- 0 0.0 3.0 90 90
r 0.090205 0 2 cbr 512 ------- 0 0.0 3.0 80 80
+ 0.090205 2 3 cbr 512 ------- 0 0.0 3.0 80 80
d 0.090205 2 3 cbr 512 ------- 0 0.0 3.0 80 80
r 0.090422 2 3 cbr 512 ------- 0 0.0 3.0 11 11
+ 0.091 0 2 cbr 512 ------- 0 0.0 3.0 91 91
- 0.091 0 2 cbr 512 ------- 0 0.0 3.0 91 91
r 0.091205 0 2 cbr 512 ------- 0 0.0 3.0 81 81
+ 0.091205 2 3 cbr 512 ------- 0 0.0 3.0 81 81
d 0.091205 2 3 cbr 512 ------- 0 0.0 3.0 81 81
+ 0.092 0 2 cbr 512 ------- 0 0.0 3.0 92 92
- 0.092 0 2 cbr 512 ------- 0 0.0 3.0 92 92
- 0.092125 2 3 cbr 512 ------- 0 0.0 3.0 14 14
r 0.092205 0 2 cbr 512 ------- 0 0.0 3.0 82 82
+ 0.092205 2 3 cbr 512 ------- 0 0.0 3.0 82 82
+ 0.093 0 2 cbr 512 ------- 0 0.0 3.0 93 93
- 0.093 0 2 cbr 512 ------- 0 0.0 3.0 93 93
r 0.093205 0 2 cbr 512 ------- 0 0.0 3.0 83 83
+ 0.093205 2 3 cbr 512 ------- 0 0.0 3.0 83 83
d 0.093205 2 3 cbr 512 ------- 0 0.0 3.0 83 83
+ 0.094 0 2 cbr 512 ------- 0 0.0 3.0 94 94
- 0.094 0 2 cbr 512 ------- 0 0.0 3.0 94 94
r 0.094205 0 2 cbr 512 ------- 0 0.0 3.0 84 84
+ 0.094205 2 3 cbr 512 ------- 0 0.0 3.0 84 84
d 0.094205 2 3 cbr 512 ------- 0 0.0 3.0 84 84
+ 0.095 0 2 cbr 512 ------- 0 0.0 3.0 95 95
- 0.095 0 2 cbr 512 ------- 0 0.0 3.0 95 95
r 0.095205 0 2 cbr 512 ------- 0 0.0 3.0 85 85
+ 0.095205 2 3 cbr 512 ------- 0 0.0 3.0 85 85
d 0.095205 2 3 cbr 512 ------- 0 0.0 3.0 85 85
+ 0.096 0 2 cbr 512 ------- 0 0.0 3.0 96 96
- 0.096 0 2 cbr 512 ------- 0 0.0 3.0 96 96
r 0.096205 0 2 cbr 512 ------- 0 0.0 3.0 86 86
+ 0.096205 2 3 cbr 512 ------- 0 0.0 3.0 86 86
d 0.096205 2 3 cbr 512 ------- 0 0.0 3.0 86 86
r 0.096273 2 3 cbr 512 ------- 0 0.0 3.0 12 12
+ 0.097 0 2 cbr 512 ------- 0 0.0 3.0 97 97
- 0.097 0 2 cbr 512 ------- 0 0.0 3.0 97 97
r 0.097205 0 2 cbr 512 ------- 0 0.0 3.0 87 87
+ 0.097205 2 3 cbr 512 ------- 0 0.0 3.0 87 87
d 0.097205 2 3 cbr 512 ------- 0 0.0 3.0 87 87
- 0.097976 2 3 cbr 512 ------- 0 0.0 3.0 15 15
+ 0.098 0 2 cbr 512 ------- 0 0.0 3.0 98 98
- 0.098 0 2 cbr 512 ------- 0 0.0 3.0 98 98
r 0.098205 0 2 cbr 512 ------- 0 0.0 3.0 88 88
+ 0.098205 2 3 cbr 512 ------- 0 0.0 3.0 88 88
+ 0.099 0 2 cbr 512 ------- 0 0.0 3.0 99 99
- 0.099 0 2 cbr 512 ------- 0 0.0 3.0 99 99
r 0.099205 0 2 cbr 512 ------- 0 0.0 3.0 89 89
+ 0.099205 2 3 cbr 512 ------- 0 0.0 3.0 89 89
d 0.099205 2 3 cbr 512 ------- 0 0.0 3.0 89 89
+ 0.1 0 2 cbr 512 ------- 0 0.0 3.0 100 100
- 0.1 0 2 cbr 512 ------- 0 0.0 3.0 100 100
r 0.100205 0 2 cbr 512 ------- 0 0.0 3.0 90 90
+ 0.100205 2 3 cbr 512 ------- 0 0.0 3.0 90 90
d 0.100205 2 3 cbr 512 ------- 0 0.0 3.0 90 90
+ 0.101 0 2 cbr 512 ------- 0 0.0 3.0 101 101
- 0.101 0 2 cbr 512 ------- 0 0.0 3.0 101 101
r 0.101205 0 2 cbr 512 ------- 0 0.0 3.0 91 91
+ 0.101205 2 3 cbr 512 ------- 0 0.0 3.0 91 91
d 0.101205 2 3 cbr 512 ------- 0 0.0 3.0 91 91
+ 0.102 0 2 cbr 512 ------- 0 0.0 3.0 102 102
- 0.102 0 2 cbr 512 ------- 0 0.0 3.0 102 102
r 0.102125 2 3 cbr 512 ------- 0 0.0 3.0 13 13
r 0.102205 0 2 cbr 512 ------- 0 0.0 3.0 92 92
+ 0.102205 2 3 cbr 512 ------- 0 0.0 3.0 92 92
d 0.102205 2 3 cbr 512 ------- 0 0.0 3.0 92 92
+ 0.103 0 2 cbr 512 ------- 0 0.0 3.0 103 103
- 0.103 0 2 cbr 512 ------- 0 0.0 3.0 103 103
r 0.103205 0 2 cbr 512 ------- 0 0.0 3.0 93 93
+ 0.103205 2 3 cbr 512 ------- 0 0.0 3.0 93 93
d 0.103205 2 3 cbr 512 ------- 0 0.0 3.0 93 93
- 0.103828 2 3 cbr 512 ------- 0 0.0 3.0 16 16
+ 0.104 0 2 cbr 512 ------- 0 0.0 3.0 104 104
- 0.104 0 2 cbr 512 ------- 0 0.0 3.0 104 104
r 0.104205 0 2 cbr 512 ------- 0 0.0 3.0 94 94
+ 0.104205 2 3 cbr 512 ------- 0 0.0 3.0 94 94
+ 0.105 0 2 cbr 512 ------- 0 0.0 3.0 105 105
- 0.105 0 2 cbr 512 ------- 0 0.0 3.0 105 105
r 0.105205 0 2 cbr 512 ------- 0 0.0 3.0 95 95
+ 0.105205 2 3 cbr 512 ------- 0 0.0 3.0 95 95
d 0.105205 2 3 cbr 512 ------- 0 0.0 3.0 95 95
+ 0.106 0 2 cbr 512 ------- 0 0.0 3.0 106 106
- 0.106 0 2 cbr 512 ------- 0 0.0 3.0 106 106
r 0.106205 0 2 cbr 512 ------- 0 0.0 3.0 96 96
+ 0.106205 2 3 cbr 512 ------- 0 0.0 3.0 96 96
d 0.106205 2 3 cbr 512 ------- 0 0.0 3.0 96 96
+ 0.107 0 2 cbr 512 ------- 0 0.0 3.0 107 107
- 0.107 0 2 cbr 512 ------- 0 0.0 3.0 107 107
r 0.107205 0 2 cbr 512 ------- 0 0.0 3.0 97 97
+ 0.107205 2 3 cbr 512 ------- 0 0.0 3.0 97 97
d 0.107205 2 3 cbr 512 ------- 0 0.0 3.0 97 97
r 0.107976 2 3 cbr 512 ------- 0 0.0 3.0 14 14
+ 0.108 0 2 cbr 512 ------- 0 0.0 3.0 108 108
- 0.108 0 2 cbr 512 ------- 0 0.0 3.0 108 108
r 0.108205 0 2 cbr 512 ------- 0 0.0 3.0 98 98
+ 0.108205 2 3 cbr 512 ------- 0 0.0 3.0 98 98
d 0.108205 2 3 cbr 512 ------- 0 0.0 3.0 98 98
+ 0.109 0 2 cbr 512 ------- 0 0.0 3.0 109 109
- 0.109 0 2 cbr 512 ------- 0 0.0 3.0 109 109
r 0.109205 0 2 cbr 512 ------- 0 0.0 3.0 99 99
+ 0.109205 2 3 cbr 512 ------- 0 0.0 3.0 99 99
d 0.109205 2 3 cbr 512 ------- 0 0.0 3.0 99 99
- 0.109679 2 3 cbr 512 ------- 0 0.0 3.0 17 17
+ 0.11 0 2 cbr 512 ------- 0 0.0 3.0 110 110
- 0.11 0 2 cbr 512 ------- 0 0.0 3.0 110 110
r 0.110205 0 2 cbr 512 ------- 0 0.0 3.0 100 100
+ 0.110205 2 3 cbr 512 ------- 0 0.0 3.0 100 100
+ 0.111 0 2 cbr 512 ------- 0 0.0 3.0 111 111
- 0.111 0 2 cbr 512 ------- 0 0.0 3.0 111 111
r 0.111205 0 2 cbr 512 ------- 0 0.0 3.0 101 101
+ 0.111205 2 3 cbr 512 ------- 0 0.0 3.0 101 101
d 0.111205 2 3 cbr 512 ------- 0 0.0 3.0 101 101
+ 0.112 0 2 cbr 512 ------- 0 0.0 3.0 112 112
- 0.112 0 2 cbr 512 ------- 0 0.0 3.0 112 112
r 0.112205 0 2 cbr 512 ------- 0 0.0 3.0 102 102
+ 0.112205 2 3 cbr 512 ------- 0 0.0 3.0 102 102
d 0.112205 2 3 cbr 512 ------- 0 0.0 3.0 102 102
+ 0.113 0 2 cbr 512 ------- 0 0.0 3.0 113 113
- 0.113 0 2 cbr 512 ------- 0 0.0 3.0 113 113
r 0.113205 0 2 cbr 512 ------- 0 0.0 3.0 103 103
+ 0.113205 2 3 cbr 512 ------- 0 0.0 3.0 103 103
d 0.113205 2 3 cbr 512 ------- 0 0.0 3.0 103 103
r 0.113828 2 3 cbr 512 ------- 0 0.0 3.0 15 15
+ 0.114 0 2 cbr 512 ------- 0 0.0 3.0 114 114
- 0.114 0 2 cbr 512 ------- 0 0.0 3.0 114 114
r 0.114205 0 2 cbr 512 ------- 0 0.0 3.0 104 104
+ 0.114205 2 3 cbr 512 ------- 0 0.0 3.0 104 104
d 0.114205 2 3 cbr 512 ------- 0 0.0 3.0 104 104
+ 0.115 0 2 cbr 512 ------- 0 0.0 3.0 115 115
- 0.115 0 2 cbr 512 ------- 0 0.0 3.0 115 115
r 0.115205 0 2 cbr 512 ------- 0 0.0 3.0 105 105
+ 0.115205 2 3 cbr 512 ------- 0 0.0 3.0 105 105
d 0.115205 2 3 cbr 512 ------- 0 0.0 3.0 105 105
- 0.115531 2 3 cbr 512 ------- 0 0.0 3.0 18 18
+ 0.116 0 2 cbr 512 ------- 0 0.0 3.0 116 116
- 0.116 0 2 cbr 512 ------- 0 0.0 3.0 116 116
r 0.116205 0 2 cbr 512 ------- 0 0.0 3.0 106 106
+ 0.116205 2 3 cbr 512 ------- 0 0.0 3.0 106 106
+ 0.117 0 2 cbr 512 ------- 0 0.0 3.0 117 117
- 0.117 0 2 cbr 512 ------- 0 0.0 3.0 117 117
r 0.117205 0 2 cbr 512 ------- 0 0.0 3.0 107 107
+ 0.117205 2 3 cbr 512 ------- 0 0.0 3.0 107 107
d 0.117205 2 3 cbr 512 ------- 0 0.0 3.0 107 107
+ 0.118 0 2 cbr 512 ------- 0 0.0 3.0 118 118
- 0.118 0 2 cbr 512 ------- 0 0.0 3.0 118 118
r 0.118205 0 2 cbr 512 ------- 0 0.0 3.0 108 108
+ 0.118205 2 3 cbr 512 ------- 0 0.0 3.0 108 108
d 0.118205 2 3 cbr 512 ------- 0 0.0 3.0 108 108
+ 0.119 0 2 cbr 512 ------- 0 0.0 3.0 119 119
- 0.119 0 2 cbr 512 ------- 0 0.0 3.0 119 119
r 0.119205 0 2 cbr 512 ------- 0 0.0 3.0 109 109
+ 0.119205 2 3 cbr 512 ------- 0 0.0 3.0 109 109
d 0.119205 2 3 cbr 512 ------- 0 0.0 3.0 109 109
r 0.119679 2 3 cbr 512 ------- 0 0.0 3.0 16 16
+ 0.12 0 2 cbr 512 ------- 0 0.0 3.0 120 120
- 0.12 0 2 cbr 512 ------- 0 0.0 3.0 120 120
r 0.120205 0 2 cbr 512 ------- 0 0.0 3.0 110 110
+ 0.120205 2 3 cbr 512 ------- 0 0.0 3.0 110 110
d 0.120205 2 3 cbr 512 ------- 0 0.0 3.0 110 110
+ 0.121 0 2 cbr 512 ------- 0 0.0 3.0 121 121
- 0.121 0 2 cbr 512 ------- 0 0.0 3.0 121 121
r 0.121205 0 2 cbr 512 ------- 0 0.0 3.0 111 111
+ 0.121205 2 3 cbr 512 ------- 0 0.0 3.0 111 111
d 0.121205 2 3 cbr 512 ------- 0 0.0 3.0 111 111
- 0.121382 2 3 cbr 512 ------- 0 0.0 3.0 19 19
+ 0.122 0 2 cbr 512 ------- 0 0.0 3.0 122 122
- 0.122 0 2 cbr 512 ------- 0 0.0 3.0 122 122
r 0.122205 0 2 cbr 512 ------- 0 0.0 3.0 112 112
+ 0.122205 2 3 cbr 512 ------- 0 0.0 3.0 112 112
+ 0.123 0 2 cbr 512 ------- 0 0.0 3.0 123 123
- 0.123 0 2 cbr 512 ------- 0 0.0 3.0 123 123
r 0.123205 0 2 cbr 512 ------- 0 0.0 3.0 113 113
+ 0.123205 2 3 cbr 512 ------- 0 0.0 3.0 113 113
d 0.123205 2 3 cbr 512 ------- 0 0.0 3.0 113 113
+ 0.124 0 2 cbr 512 ------- 0 0.0 3.0 124 124
- 0.124 0 2 cbr 512 ------- 0 0.0 3.0 124 124
r 0.124205 0 2 cbr 512 ------- 0 0.0 3.0 114 114
+ 0.124205 2 3 cbr 512 ------- 0 0.0 3.0 114 114
d 0.124205 2 3 cbr 512 ------- 0 0.0 3.0 114 114
+ 0.125 0 2 cbr 512 ------- 0 0.0 3.0 125 125
- 0.125 0 2 cbr 512 ------- 0 0.0 3.0 125 125
r 0.125205 0 2 cbr 512 ------- 0 0.0 3.0 115 115
+ 0.125205 2 3 cbr 512 ------- 0 0.0 3.0 115 115
d 0.125205 2 3 cbr 512 ------- 0 0.0 3.0 115 115
r 0.125531 2 3 cbr 512 ------- 0 0.0 3.0 17 17
+ 0.126 0 2 cbr 512 ------- 0 0.0 3.0 126 126
- 0.126 0 2 cbr 512 ------- 0 0.0 3.0 126 126
r 0.126205 0 2 cbr 512 ------- 0 0.0 3.0 116 116
+ 0.126205 2 3 cbr 512 ------- 0 0.0 3.0 116 116
d 0.126205 2 3 cbr 512 ------- 0 0.0 3.0 116 116
+ 0.127 0 2 cbr 512 ------- 0 0.0 3.0 127 127
- 0.127 0 2 cbr 512 ------- 0 0.0 3.0 127 127
r 0.127205 0 2 cbr 512 ------- 0 0.0 3.0 117 117
+ 0.127205 2 3 cbr 512 ------- 0 0.0 3.0 117 117
d 0.127205 2 3 cbr 512 ------- 0 0.0 3.0 117 117
- 0.127233 2 3 cbr 512 ------- 0 0.0 3.0 20 20
+ 0.128 0 2 cbr 512 ------- 0 0.0 3.0 128 128
- 0.128 0 2 cbr 512 ------- 0 0.0 3.0 128 128
r 0.128205 0 2 cbr 512 ------- 0 0.0 3.0 118 118
+ 0.128205 2 3 cbr 512 ------- 0 0.0 3.0 118 118
+ 0.129 0 2 cbr 512 ------- 0 0.0 3.0 129 129
- 0.129 0 2 cbr 512 ------- 0 0.0 3.0 129 129
r 0.129205 0 2 cbr 512 ------- 0 0.0 3.0 119 119
+ 0.129205 2 3 cbr 512 ------- 0 0.0 3.0 119 119
d 0.129205 2 3 cbr 512 ------- 0 0.0 3.0 119 119
+ 0.13 0 2 cbr 512 ------- 0 0.0 3.0 130 130
- 0.13 0 2 cbr 512 ------- 0 0.0 3.0 130 130
r 0.130205 0 2 cbr 512 ------- 0 0.0 3.0 120 120
+ 0.130205 2 3 cbr 512 ------- 0 0.0 3.0 120 120
d 0.130205 2 3 cbr 512 ------- 0 0.0 3.0 120 120
+ 0.131 0 2 cbr 512 ------- 0 0.0 3.0 131 131
- 0.131 0 2 cbr 512 ------- 0 0.0 3.0 131 131
r 0.131205 0 2 cbr 512 ------- 0 0.0 3.0 121 121
+ 0.131205 2 3 cbr 512 ------- 0 0.0 3.0 121 121
d 0.131205 2 3 cbr 512 ------- 0 0.0 3.0 121 121
r 0.131382 2 3 cbr 512 ------- 0 0.0 3.0 18 18
+ 0.132 0 2 cbr 512 ------- 0 0.0 3.0 132 132
- 0.132 0 2 cbr 512 ------- 0 0.0 3.0 132 132
r 0.132205 0 2 cbr 512 ------- 0 0.0 3.0 122 122
+ 0.132205 2 3 cbr 512 ------- 0 0.0 3.0 122 122
d 0.132205 2 3 cbr 512 ------- 0 0.0 3.0 122 122
+ 0.133 0 2 cbr 512 ------- 0 0.0 3.0 133 133
- 0.133 0 2 cbr 512 ------- 0 0.0 3.0 133 133
- 0.133085 2 3 cbr 512 ------- 0 0.0 3.0 21 21
r 0.133205 0 2 cbr 512 ------- 0 0.0 3.0 123 123
+ 0.133205 2 3 cbr 512 ------- 0 0.0 3.0 123 123
+ 0.134 0 2 cbr 512 ------- 0 0.0 3.0 134 134
- 0.134 0 2 cbr 512 ------- 0 0.0 3.0 134 134
r 0.134205 0 2 cbr 512 ------- 0 0.0 3.0 124 124
+ 0.134205 2 3 cbr 512 ------- 0 0.0 3.0 124 124
d 0.134205 2 3 cbr 512 ------- 0 0.0 3.0 124 124
+ 0.135 0 2 cbr 512 ------- 0 0.0 3.0 135 135
- 0.135 0 2 cbr 512 ------- 0 0.0 3.0 135 135
r 0.135205 0 2 cbr 512 ------- 0 0.0 3.0 125 125
+ 0.135205 2 3 cbr 512 ------- 0 0.0 3.0 125 125
d 0.135205 2 3 cbr 512 ------- 0 0.0 3.0 125 125
+ 0.136 0 2 cbr 512 ------- 0 0.0 3.0 136 136
- 0.136 0 2 cbr 512 ------- 0 0.0 3.0 136 136
r 0.136205 0 2 cbr 512 ------- 0 0.0 3.0 126 126
+ 0.136205 2 3 cbr 512 ------- 0 0.0 3.0 126 126
d 0.136205 2 3 cbr 512 ------- 0 0.0 3.0 126 126
+ 0.137 0 2 cbr 512 ------- 0 0.0 3.0 137 137
- 0.137 0 2 cbr 512 ------- 0 0.0 3.0 137 137
r 0.137205 0 2 cbr 512 ------- 0 0.0 3.0 127 127
+ 0.137205 2 3 cbr 512 ------- 0 0.0 3.0 127 127
d 0.137205 2 3 cbr 512 ------- 0 0.0 3.0 127 127
r 0.137233 2 3 cbr 512 ------- 0 0.0 3.0 19 19
+ 0.138 0 2 cbr 512 ------- 0 0.0 3.0 138 138
- 0.138 0 2 cbr 512 ------- 0 0.0 3.0 138 138
r 0.138205 0 2 cbr 512 ------- 0 0.0 3.0 128 128
+ 0.138205 2 3 cbr 512 ------- 0 0.0 3.0 128 128
d 0.138205 2 3 cbr 512 ------- 0 0.0 3.0 128 128
- 0.138936 2 3 cbr 512 ------- 0 0.0 3.0 22 22
+ 0.139 0 2 cbr 512 ------- 0 0.0 3.0 139 139
- 0.139 0 2 cbr 512 ------- 0 0.0 3.0 139 139
r 0.139205 0 2 cbr 512 ------- 0 0.0 3.0 129 129
+ 0.139205 2 3 cbr 512 ------- 0 0.0 3.0 129 129
+ 0.14 0 2 cbr 512 ------- 0 0.0 3.0 140 140
- 0.14 0 2 cbr 512 ------- 0 0.0 3.0 140 140
r 0.140205 0 2 cbr 512 ------- 0 0.0 3.0 130 130
+ 0.140205 2 3 cbr 512 ------- 0 0.0 3.0 130 130
d 0.140205 2 3 cbr 512 ------- 0 0.0 3.0 130 130
+ 0.141 0 2 cbr 512 ------- 0 0.0 3.0 141 141
- 0.141 0 2 cbr 512 ------- 0 0.0 3.0 141 141
r 0.141205 0 2 cbr 512 ------- 0 0.0 3.0 131 131
+ 0.141205 2 3 cbr 512 ------- 0 0.0 3.0 131 131
d 0.141205 2 3 cbr 512 ------- 0 0.0 3.0 131 131
+ 0.142 0 2 cbr 512 ------- 0 0.0 3.0 142 142