V -t * -v 1.0a5 -a 0
A -t * -n 1 -p 0 -o 0x7fffffff -c 30 -a 1
A -t * -h 1 -m 1073741823 -s 0
n -t * -a 0 -s 0 -S UP -v circle -c black -i black
n -t * -a 1 -s 1 -S UP -v circle -c black -i black
n -t * -a 2 -s 2 -S UP -v circle -c black -i black
n -t * -a 3 -s 3 -S UP -v circle -c black -i black
l -t * -s 0 -d 2 -S UP -r 20000000 -D 0.01 -c black
l -t * -s 1 -d 2 -S UP -r 10000000 -D 0.01 -c black
l -t * -s 2 -d 3 -S UP -r 700000 -D 0.01 -c black
+ -t 0 -s 0 -d 2 -p tcp -e 40 -c 0 -i 0 -a 0 -x {0.0 3.0 0 ------- null}
- -t 0 -s 0 -d 2 -p tcp -e 40 -c 0 -i 0 -a 0 -x {0.0 3.0 0 ------- null}
h -t 0 -s 0 -d 2 -p tcp -e 40 -c 0 -i 0 -a 0 -x {0.0 3.0 -1 ------- null}
r -t 0.010016 -s 0 -d 2 -p tcp -e 40 -c 0 -i 0 -a 0 -x {0.0 3.0 0 ------- null}
+ -t 0.010016 -s 2 -d 3 -p tcp -e 40 -c 0 -i 0 -a 0 -x {0.0 3.0 0 ------- null}
- -t 0.010016 -s 2 -d 3 -p tcp -e 40 -c 0 -i 0 -a 0 -x {0.0 3.0 0 ------- null}
h -t 0.010016 -s 2 -d 3 -p tcp -e 40 -c 0 -i 0 -a 0 -x {0.0 3.0 -1 ------- null}
r -t 0.0204731428571429 -s 2 -d 3 -p tcp -e 40 -c 0 -i 0 -a 0 -x {0.0 3.0 0 ------- null}
+ -t 0.0204731428571429 -s 3 -d 2 -p ack -e 40 -c 0 -i 1 -a 0 -x {3.0 0.0 0 ------- null}
- -t 0.0204731428571429 -s 3 -d 2 -p ack -e 40 -c 0 -i 1 -a 0 -x {3.0 0.0 0 ------- null}
h -t 0.0204731428571429 -s 3 -d 2 -p ack -e 40 -c 0 -i 1 -a 0 -x {3.0 0.0 -1 ------- null}
r -t 0.0309302857142857 -s 3 -d 2 -p ack -e 40 -c 0 -i 1 -a 0 -x {3.0 0.0 0 ------- null}
+ -t 0.0309302857142857 -s 2 -d 0 -p ack -e 40 -c 0 -i 1 -a 0 -x {3.0 0.0 0 ------- null}
- -t 0.0309302857142857 -s 2 -d 0 -p ack -e 40 -c 0 -i 1 -a 0 -x {3.0 0.0 0 ------- null}
h -t 0.0309302857142857 -s 2 -d 0 -p ack -e 40 -c 0 -i 1 -a 0 -x {3.0 0.0 -1 ------- null}
r -t 0.0409462857142857 -s 2 -d 0 -p ack -e 40 -c 0 -i 1 -a 0 -x {3.0 0.0 0 ------- null}
+ -t 0.0409462857142857 -s 0 -d 2 -p tcp -e 1040 -c 0 -i 2 -a 0 -x {0.0 3.0 1 ------- null}
- -t 0.0409462857142857 -s 0 -d 2 -p tcp -e 1040 -c 0 -i 2 -a 0 -x {0.0 3.0 1 ------- null}
h -t 0.0409462857142857 -s 0 -d 2 -p tcp -e 1040 -c 0 -i 2 -a 0 -x {0.0 3.0 -1 ------- null}
+ -t 0.0409462857142857 -s 0 -d 2 -p tcp -e 1040 -c 0 -i 3 -a 0 -x {0.0 3.0 2 ------- null}
- -t 0.0413622857142857 -s 0 -d 2 -p tcp -e 1040 -c 0 -i 3 -a 0 -x {0.0 3.0 2 ------- null}
h -t 0.0413622857142857 -s 0 -d 2 -p tcp -e 1040 -c 0 -i 3 -a 0 -x {0.0 3.0 -1 ------- null}
r -t 0.0513622857142857 -s 0 -d 2 -p tcp -e 1040 -c 0 -i 2 -a 0 -x {0.0 3.0 1 ------- null}
+ -t 0.0513622857142857 -s 2 -d 3 -p tcp -e 1040 -c 0 -i 2 -a 0 -x {0.0 3.0 1 ------- null}
- -t 0.0513622857142857 -s 2 -d 3 -p tcp -e 1040 -c 0 -i 2 -a 0 -x {0.0 3.0 1 ------- null}
h -t 0.0513622857142857 -s 2 -d 3 -p tcp -e 1040 -c 0 -i 2 -a 0 -x {0.0 3.0 -1 ------- null}
r -t 0.0517782857142857 -s 0 -d 2 -p tcp -e 1040 -c 0 -i 3 -a 0 -x {0.0 3.0 2 ------- null}
+ -t 0.0517782857142857 -s 2 -d 3 -p tcp -e 1040 -c 0 -i 3 -a 0 -x {0.0 3.0 2 ------- null}
- -t 0.063248 -s 2 -d 3 -p tcp -e 1040 -c 0 -i 3 -a 0 -x {0.0 3.0 2 ------- null}
h -t 0.063248 -s 2 -d 3 -p tcp -e 1040 -c 0 -i 3 -a 0 -x {0.0 3.0 -1 ------- null}
r -t 0.073248 -s 2 -d 3 -p tcp -e 1040 -c 0 -i 2 -a 0 -x {0.0 3.0 1 ------- null}
+ -t 0.073248 -s 3 -d 2 -p ack -e 40 -c 0 -i 4 -a 0 -x {3.0 0.0 1 ------- null}
- -t 0.073248 -s 3 -d 2 -p ack -e 40 -c 0 -i 4 -a 0 -x {3.0 0.0 1 ------- null}
h -t 0.073248 -s 3 -d 2 -p ack -e 40 -c 0 -i 4 -a 0 -x {3.0 0.0 -1 ------- null}
r -t 0.0837051428571429 -s 3 -d 2 -p ack -e 40 -c 0 -i 4 -a 0 -x {3.0 0.0 1 ------- null}
+ -t 0.0837051428571429 -s 2 -d 0 -p ack -e 40 -c 0 -i 4 -a 0 -x {3.0 0.0 1 ------- null}
- -t 0.0837051428571429 -s 2 -d 0 -p ack -e 40 -c 0 -i 4 -a 0 -x {3.0 0.0 1 ------- null}
h -t 0.0837051428571429 -s 2 -d 0 -p ack -e 40 -c 0 -i 4 -a 0 -x {3.0 0.0 -1 ------- null}
r -t 0.0851337142857143 -s 2 -d 3 -p tcp -e 1040 -c 0 -i 3 -a 0 -x {0.0 3.0 2 ------- null}
+ -t 0.0851337142857143 -s 3 -d 2 -p ack -e 40 -c 0 -i 5 -a 0 -x {3.0 0.0 2 ------- null}
- -t 0.0851337142857143 -s 3 -d 2 -p ack -e 40 -c 0 -i 5 -a 0 -x {3.0 0.0 2 ------- null}
h -t 0.0851337142857143 -s 3 -d 2 -p ack -e 40 -c 0 -i 5 -a 0 -x {3.0 0.0 -1 ------- null}
r -t 0.0937211428571429 -s 2 -d 0 -p ack -e 40 -c 0 -i 4 -a 0 -x {3.0 0.0 1 ------- null}
+ -t 0.0937211428571429 -s 0 -d 2 -p tcp -e 1040 -c 0 -i 6 -a 0 -x {0.0 3.0 3 ------- null}
- -t 0.0937211428571429 -s 0 -d 2 -p tcp -e 1040 -c 0 -i 6 -a 0 -x {0.0 3.0 3 ------- null}
h -t 0.0937211428571429 -s 0 -d 2 -p tcp -e 1040 -c 0 -i 6 -a 0 -x {0.0 3.0 -1 ------- null}
+ -t 0.0937211428571429 -s 0 -d 2 -p tcp -e 1040 -c 0 -i 7 -a 0 -x {0.0 3.0 4 ------- null}
- -t 0.0941371428571429 -s 0 -d 2 -p tcp -e 1040 -c 0 -i 7 -a 0 -x {0.0 3.0 4 ------- null}
h -t 0.0941371428571429 -s 0 -d 2 -p tcp -e 1040 -c 0 -i 7 -a 0 -x {0.0 3.0 -1 ------- null}
r -t 0.0955908571428571 -s 3 -d 2 -p ack -e 40 -c 0 -i 5 -a 0 -x {3.0 0.0 2 ------- null}
+ -t 0.0955908571428571 -s 2 -d 0 -p ack -e 40 -c 0 -i 5 -a 0 -x {3.0 0.0 2 ------- null}
- -t 0.0955908571428571 -s 2 -d 0 -p ack -e 40 -c 0 -i 5 -a 0 -x {3.0 0.0 2 ------- null}
h -t 0.0955908571428571 -s 2 -d 0 -p ack -e 40 -c 0 -i 5 -a 0 -x {3.0 0.0 -1 ------- null}
r -t 0.104137142857143 -s 0 -d 2 -p tcp -e 1040 -c 0 -i 6 -a 0 -x {0.0 3.0 3 ------- null}
+ -t 0.104137142857143 -s 2 -d 3 -p tcp -e 1040 -c 0 -i 6 -a 0 -x {0.0 3.0 3 ------- null}
- -t 0.104137142857143 -s 2 -d 3 -p tcp -e 1040 -c 0 -i 6 -a 0 -x {0.0 3.0 3 ------- null}
h -t 0.104137142857143 -s 2 -d 3 -p tcp -e 1040 -c 0 -i 6 -a 0 -x {0.0 3.0 -1 ------- null}
r -t 0.104553142857143 -s 0 -d 2 -p tcp -e 1040 -c 0 -i 7 -a 0 -x {0.0 3.0 4 ------- null}
+ -t 0.104553142857143 -s 2 -d 3 -p tcp -e 1040 -c 0 -i 7 -a 0 -x {0.0 3.0 4 ------- null}
r -t 0.105606857142857 -s 2 -d 0 -p ack -e 40 -c 0 -i 5 -a 0 -x {3.0 0.0 2 ------- null}
+ -t 0.105606857142857 -s 0 -d 2 -p tcp -e 1040 -c 0 -i 8 -a 0 -x {0.0 3.0 5 ------- null}
- -t 0.105606857142857 -s 0 -d 2 -p tcp -e 1040 -c 0 -i 8 -a 0 -x {0.0 3.0 5 ------- null}
h -t 0.105606857142857 -s 0 -d 2 -p tcp -e 1040 -c 0 -i 8 -a 0 -x {0.0 3.0 -1 ------- null}
+ -t 0.105606857142857 -s 0 -d 2 -p tcp -e 1040 -c 0 -i 9 -a 0 -x {0.0 3.0 6 ------- null}
- -t 0.106022857142857 -s 0 -d 2 -p tcp -e 1040 -c 0 -i 9 -a 0 -x {0.0 3.0 6 ------- null}
h -t 0.106022857142857 -s 0 -d 2 -p tcp -e 1040 -c 0 -i 9 -a 0 -x {0.0 3.0 -1 ------- null}
r -t 0.116022857142857 -s 0 -d 2 -p tcp -e 1040 -c 0 -i 8 -a 0 -x {0.0 3.0 5 ------- null}
+ -t 0.116022857142857 -s 2 -d 3 -p tcp -e 1040 -c 0 -i 8 -a 0 -x {0.0 3.0 5 ------- null}
- -t 0.116022857142857 -s 2 -d 3 -p tcp -e 1040 -c 0 -i 7 -a 0 -x {0.0 3.0 4 ------- null}
h -t 0.116022857142857 -s 2 -d 3 -p tcp -e 1040 -c 0 -i 7 -a 0 -x {0.0 3.0 -1 ------- null}
r -t 0.116438857142857 -s 0 -d 2 -p tcp -e 1040 -c 0 -i 9 -a 0 -x {0.0 3.0 6 ------- null}
+ -t 0.116438857142857 -s 2 -d 3 -p tcp -e 1040 -c 0 -i 9 -a 0 -x {0.0 3.0 6 ------- null}
r -t 0.126022857142857 -s 2 -d 3 -p tcp -e 1040 -c 0 -i 6 -a 0 -x {0.0 3.0 3 ------- null}
+ -t 0.126022857142857 -s 3 -d 2 -p ack -e 40 -c 0 -i 10 -a 0 -x {3.0 0.0 3 ------- null}
- -t 0.126022857142857 -s 3 -d 2 -p ack -e 40 -c 0 -i 10 -a 0 -x {3.0 0.0 3 ------- null}
h -t 0.126022857142857 -s 3 -d 2 -p ack -e 40 -c 0 -i 10 -a 0 -x {3.0 0.0 -1 ------- null}
- -t 0.127908571428571 -s 2 -d 3 -p tcp -e 1040 -c 0 -i 8 -a 0 -x {0.0 3.0 5 ------- null}
h -t 0.127908571428571 -s 2 -d 3 -p tcp -e 1040 -c 0 -i 8 -a 0 -x {0.0 3.0 -1 ------- null}
r -t 0.13648 -s 3 -d 2 -p ack -e 40 -c 0 -i 10 -a 0 -x {3.0 0.0 3 ------- null}
+ -t 0.13648 -s 2 -d 0 -p ack -e 40 -c 0 -i 10 -a 0 -x {3.0 0.0 3 ------- null}
- -t 0.13648 -s 2 -d 0 -p ack -e 40 -c 0 -i 10 -a 0 -x {3.0 0.0 3 ------- null}
h -t 0.13648 -s 2 -d 0 -p ack -e 40 -c 0 -i 10 -a 0 -x {3.0 0.0 -1 ------- null}
r -t 0.137908571428571 -s 2 -d 3 -p tcp -e 1040 -c 0 -i 7 -a 0 -x {0.0 3.0 4 ------- null}
+ -t 0.137908571428571 -s 3 -d 2 -p ack -e 40 -c 0 -i 11 -a 0 -x {3.0 0.0 4 ------- null}
- -t 0.137908571428571 -s 3 -d 2 -p ack -e 40 -c 0 -i 11 -a 0 -x {3.0 0.0 4 ------- null}
h -t 0.137908571428571 -s 3 -d 2 -p ack -e 40 -c 0 -i 11 -a 0 -x {3.0 0.0 -1 ------- null}
- -t 0.139794285714286 -s 2 -d 3 -p tcp -e 1040 -c 0 -i 9 -a 0 -x {0.0 3.0 6 ------- null}
h -t 0.139794285714286 -s 2 -d 3 -p tcp -e 1040 -c 0 -i 9 -a 0 -x {0.0 3.0 -1 ------- null}
r -t 0.146496 -s 2 -d 0 -p ack -e 40 -c 0 -i 10 -a 0 -x {3.0 0.0 3 ------- null}
+ -t 0.146496 -s 0 -d 2 -p tcp -e 1040 -c 0 -i 12 -a 0 -x {0.0 3.0 7 ------- null}
- -t 0.146496 -s 0 -d 2 -p tcp -e 1040 -c 0 -i 12 -a 0 -x {0.0 3.0 7 ------- null}
h -t 0.146496 -s 0 -d 2 -p tcp -e 1040 -c 0 -i 12 -a 0 -x {0.0 3.0 -1 ------- null}
+ -t 0.146496 -s 0 -d 2 -p tcp -e 1040 -c 0 -i 13 -a 0 -x {0.0 3.0 8 ------- null}
- -t 0.146912 -s 0 -d 2 -p tcp -e 1040 -c 0 -i 13 -a 0 -x {0.0 3.0 8 ------- null}
h -t 0.146912 -s 0 -d 2 -p tcp -e 1040 -c 0 -i 13 -a 0 -x {0.0 3.0 -1 ------- null}
r -t 0.148365714285714 -s 3 -d 2 -p ack -e 40 -c 0 -i 11 -a 0 -x {3.0 0.0 4 ------- null}
+ -t 0.148365714285714 -s 2 -d 0 -p ack -e 40 -c 0 -i 11 -a 0 -x {3.0 0.0 4 ------- null}
- -t 0.148365714285714 -s 2 -d 0 -p ack -e 40 -c 0 -i 11 -a 0 -x {3.0 0.0 4 ------- null}
h -t 0.148365714285714 -s 2 -d 0 -p ack -e 40 -c 0 -i 11 -a 0 -x {3.0 0.0 -1 ------- null}
r -t 0.149794285714286 -s 2 -d 3 -p tcp -e 1040 -c 0 -i 8 -a 0 -x {0.0 3.0 5 ------- null}
+ -t 0.149794285714286 -s 3 -d 2 -p ack -e 40 -c 0 -i 14 -a 0 -x {3.0 0.0 5 ------- null}
- -t 0.149794285714286 -s 3 -d 2 -p ack -e 40 -c 0 -i 14 -a 0 -x {3.0 0.0 5 ------- null}
h -t 0.149794285714286 -s 3 -d 2 -p ack -e 40 -c 0 -i 14 -a 0 -x {3.0 0.0 -1 ------- null}
r -t 0.156912 -s 0 -d 2 -p tcp -e 1040 -c 0 -i 12 -a 0 -x {0.0 3.0 7 ------- null}
+ -t 0.156912 -s 2 -d 3 -p tcp -e 1040 -c 0 -i 12 -a 0 -x {0.0 3.0 7 ------- null}
- -t 0.156912 -s 2 -d 3 -p tcp -e 1040 -c 0 -i 12 -a 0 -x {0.0 3.0 7 ------- null}
h -t 0.156912 -s 2 -d 3 -p tcp -e 1040 -c 0 -i 12 -a 0 -x {0.0 3.0 -1 ------- null}
r -t 0.157328 -s 0 -d 2 -p tcp -e 1040 -c 0 -i 13 -a 0 -x {0.0 3.0 8 ------- null}
+ -t 0.157328 -s 2 -d 3 -p tcp -e 1040 -c 0 -i 13 -a 0 -x {0.0 3.0 8 ------- null}
r -t 0.158381714285714 -s 2 -d 0 -p ack -e 40 -c 0 -i 11 -a 0 -x {3.0 0.0 4 ------- null}
+ -t 0.158381714285714 -s 0 -d 2 -p tcp -e 1040 -c 0 -i 15 -a 0 -x {0.0 3.0 9 ------- null}
- -t 0.158381714285714 -s 0 -d 2 -p tcp -e 1040 -c 0 -i 15 -a 0 -x {0.0 3.0 9 ------- null}
h -t 0.158381714285714 -s 0 -d 2 -p tcp -e 1040 -c 0 -i 15 -a 0 -x {0.0 3.0 -1 ------- null}
+ -t 0.158381714285714 -s 0 -d 2 -p tcp -e 1040 -c 0 -i 16 -a 0 -x {0.0 3.0 10 ------- null}
- -t 0.158797714285714 -s 0 -d 2 -p tcp -e 1040 -c 0 -i 16 -a 0 -x {0.0 3.0 10 ------- null}
h -t 0.158797714285714 -s 0 -d 2 -p tcp -e 1040 -c 0 -i 16 -a 0 -x {0.0 3.0 -1 ------- null}
r -t 0.160251428571429 -s 3 -d 2 -p ack -e 40 -c 0 -i 14 -a 0 -x {3.0 0.0 5 ------- null}
+ -t 0.160251428571429 -s 2 -d 0 -p ack -e 40 -c 0 -i 14 -a 0 -x {3.0 0.0 5 ------- null}
- -t 0.160251428571429 -s 2 -d 0 -p ack -e 40 -c 0 -i 14 -a 0 -x {3.0 0.0 5 ------- null}
h -t 0.160251428571429 -s 2 -d 0 -p ack -e 40 -c 0 -i 14 -a 0 -x {3.0 0.0 -1 ------- null}
r -t 0.16168 -s 2 -d 3 -p tcp -e 1040 -c 0 -i 9 -a 0 -x {0.0 3.0 6 ------- null}
+ -t 0.16168 -s 3 -d 2 -p ack -e 40 -c 0 -i 17 -a 0 -x {3.0 0.0 6 ------- null}
- -t 0.16168 -s 3 -d 2 -p ack -e 40 -c 0 -i 17 -a 0 -x {3.0 0.0 6 ------- null}
h -t 0.16168 -s 3 -d 2 -p ack -e 40 -c 0 -i 17 -a 0 -x {3.0 0.0 -1 ------- null}
- -t 0.168797714285714 -s 2 -d 3 -p tcp -e 1040 -c 0 -i 13 -a 0 -x {0.0 3.0 8 ------- null}
h -t 0.168797714285714 -s 2 -d 3 -p tcp -e 1040 -c 0 -i 13 -a 0 -x {0.0 3.0 -1 ------- null}
r -t 0.168797714285714 -s 0 -d 2 -p tcp -e 1040 -c 0 -i 15 -a 0 -x {0.0 3.0 9 ------- null}
+ -t 0.168797714285714 -s 2 -d 3 -p tcp -e 1040 -c 0 -i 15 -a 0 -x {0.0 3.0 9 ------- null}
r -t 0.169213714285714 -s 0 -d 2 -p tcp -e 1040 -c 0 -i 16 -a 0 -x {0.0 3.0 10 ------- null}
+ -t 0.169213714285714 -s 2 -d 3 -p tcp -e 1040 -c 0 -i 16 -a 0 -x {0.0 3.0 10 ------- null}
r -t 0.170267428571429 -s 2 -d 0 -p ack -e 40 -c 0 -i 14 -a 0 -x {3.0 0.0 5 ------- null}
+ -t 0.170267428571429 -s 0 -d 2 -p tcp -e 1040 -c 0 -i 18 -a 0 -x {0.0 3.0 11 ------- null}
- -t 0.170267428571429 -s 0 -d 2 -p tcp -e 1040 -c 0 -i 18 -a 0 -x {0.0 3.0 11 ------- null}
h -t 0.170267428571429 -s 0 -d 2 -p tcp -e 1040 -c 0 -i 18 -a 0 -x {0.0 3.0 -1 ------- null}
+ -t 0.170267428571429 -s 0 -d 2 -p tcp -e 1040 -c 0 -i 19 -a 0 -x {0.0 3.0 12 ------- null}
- -t 0.170683428571429 -s 0 -d 2 -p tcp -e 1040 -c 0 -i 19 -a 0 -x {0.0 3.0 12 ------- null}
h -t 0.170683428571429 -s 0 -d 2 -p tcp -e 1040 -c 0 -i 19 -a 0 -x {0.0 3.0 -1 ------- null}
r -t 0.172137142857143 -s 3 -d 2 -p ack -e 40 -c 0 -i 17 -a 0 -x {3.0 0.0 6 ------- null}
+ -t 0.172137142857143 -s 2 -d 0 -p ack -e 40 -c 0 -i 17 -a 0 -x {3.0 0.0 6 ------- null}
- -t 0.172137142857143 -s 2 -d 0 -p ack -e 40 -c 0 -i 17 -a 0 -x {3.0 0.0 6 ------- null}
h -t 0.172137142857143 -s 2 -d 0 -p ack -e 40 -c 0 -i 17 -a 0 -x {3.0 0.0 -1 ------- null}
r -t 0.178797714285714 -s 2 -d 3 -p tcp -e 1040 -c 0 -i 12 -a 0 -x {0.0 3.0 7 ------- null}
+ -t 0.178797714285714 -s 3 -d 2 -p ack -e 40 -c 0 -i 20 -a 0 -x {3.0 0.0 7 ------- null}
- -t 0.178797714285714 -s 3 -d 2 -p ack -e 40 -c 0 -i 20 -a 0 -x {3.0 0.0 7 ------- null}
h -t 0.178797714285714 -s 3 -d 2 -p ack -e 40 -c 0 -i 20 -a 0 -x {3.0 0.0 -1 ------- null}
- -t 0.180683428571429 -s 2 -d 3 -p tcp -e 1040 -c 0 -i 15 -a 0 -x {0.0 3.0 9 ------- null}
h -t 0.180683428571429 -s 2 -d 3 -p tcp -e 1040 -c 0 -i 15 -a 0 -x {0.0 3.0 -1 ------- null}
r -t 0.180683428571429 -s 0 -d 2 -p tcp -e 1040 -c 0 -i 18 -a 0 -x {0.0 3.0 11 ------- null}
+ -t 0.180683428571429 -s 2 -d 3 -p tcp -e 1040 -c 0 -i 18 -a 0 -x {0.0 3.0 11 ------- null}
r -t 0.181099428571429 -s 0 -d 2 -p tcp -e 1040 -c 0 -i 19 -a 0 -x {0.0 3.0 12 ------- null}
+ -t 0.181099428571429 -s 2 -d 3 -p tcp -e 1040 -c 0 -i 19 -a 0 -x {0.0 3.0 12 ------- null}
r -t 0.182153142857143 -s 2 -d 0 -p ack -e 40 -c 0 -i 17 -a 0 -x {3.0 0.0 6 ------- null}
+ -t 0.182153142857143 -s 0 -d 2 -p tcp -e 1040 -c 0 -i 21 -a 0 -x {0.0 3.0 13 ------- null}
- -t 0.182153142857143 -s 0 -d 2 -p tcp -e 1040 -c 0 -i 21 -a 0 -x {0.0 3.0 13 ------- null}
h -t 0.182153142857143 -s 0 -d 2 -p tcp -e 1040 -c 0 -i 21 -a 0 -x {0.0 3.0 -1 ------- null}
+ -t 0.182153142857143 -s 0 -d 2 -p tcp -e 1040 -c 0 -i 22 -a 0 -x {0.0 3.0 14 ------- null}
- -t 0.182569142857143 -s 0 -d 2 -p tcp -e 1040 -c 0 -i 22 -a 0 -x {0.0 3.0 14 ------- null}
h -t 0.182569142857143 -s 0 -d 2 -p tcp -e 1040 -c 0 -i 22 -a 0 -x {0.0 3.0 -1 ------- null}
r -t 0.189254857142857 -s 3 -d 2 -p ack -e 40 -c 0 -i 20 -a 0 -x {3.0 0.0 7 ------- null}
+ -t 0.189254857142857 -s 2 -d 0 -p ack -e 40 -c 0 -i 20 -a 0 -x {3.0 0.0 7 ------- null}
- -t 0.189254857142857 -s 2 -d 0 -p ack -e 40 -c 0 -i 20 -a 0 -x {3.0 0.0 7 ------- null}
h -t 0.189254857142857 -s 2 -d 0 -p ack -e 40 -c 0 -i 20 -a 0 -x {3.0 0.0 -1 ------- null}
r -t 0.190683428571429 -s 2 -d 3 -p tcp -e 1040 -c 0 -i 13 -a 0 -x {0.0 3.0 8 ------- null}
+ -t 0.190683428571429 -s 3 -d 2 -p ack -e 40 -c 0 -i 23 -a 0 -x {3.0 0.0 8 ------- null}
- -t 0.190683428571429 -s 3 -d 2 -p ack -e 40 -c 0 -i 23 -a 0 -x {3.0 0.0 8 ------- null}
h -t 0.190683428571429 -s 3 -d 2 -p ack -e 40 -c 0 -i 23 -a 0 -x {3.0 0.0 -1 ------- null}
- -t 0.192569142857143 -s 2 -d 3 -p tcp -e 1040 -c 0 -i 16 -a 0 -x {0.0 3.0 10 ------- null}
h -t 0.192569142857143 -s 2 -d 3 -p tcp -e 1040 -c 0 -i 16 -a 0 -x {0.0 3.0 -1 ------- null}
r -t 0.192569142857143 -s 0 -d 2 -p tcp -e 1040 -c 0 -i 21 -a 0 -x {0.0 3.0 13 ------- null}
+ -t 0.192569142857143 -s 2 -d 3 -p tcp -e 1040 -c 0 -i 21 -a 0 -x {0.0 3.0 13 ------- null}
r -t 0.192985142857143 -s 0 -d 2 -p tcp -e 1040 -c 0 -i 22 -a 0 -x {0.0 3.0 14 ------- null}
+ -t 0.192985142857143 -s 2 -d 3 -p tcp -e 1040 -c 0 -i 22 -a 0 -x {0.0 3.0 14 ------- null}
r -t 0.199270857142857 -s 2 -d 0 -p ack -e 40 -c 0 -i 20 -a 0 -x {3.0 0.0 7 ------- null}
+ -t 0.199270857142857 -s 0 -d 2 -p tcp -e 1040 -c 0 -i 24 -a 0 -x {0.0 3.0 15 ------- null}
- -t 0.199270857142857 -s 0 -d 2 -p tcp -e 1040 -c 0 -i 24 -a 0 -x {0.0 3.0 15 ------- null}
h -t 0.199270857142857 -s 0 -d 2 -p tcp -e 1040 -c 0 -i 24 -a 0 -x {0.0 3.0 -1 ------- null}
+ -t 0.199270857142857 -s 0 -d 2 -p tcp -e 1040 -c 0 -i 25 -a 0 -x {0.0 3.0 16 ------- null}
- -t 0.199686857142857 -s 0 -d 2 -p tcp -e 1040 -c 0 -i 25 -a 0 -x {0.0 3.0 16 ------- null}
h -t 0.199686857142857 -s 0 -d 2 -p tcp -e 1040 -c 0 -i 25 -a 0 -x {0.0 3.0 -1 ------- null}
r -t 0.201140571428571 -s 3 -d 2 -p ack -e 40 -c 0 -i 23 -a 0 -x {3.0 0.0 8 ------- null}
+ -t 0.201140571428571 -s 2 -d 0 -p ack -e 40 -c 0 -i 23 -a 0 -x {3.0 0.0 8 ------- null}
- -t 0.201140571428571 -s 2 -d 0 -p ack -e 40 -c 0 -i 23 -a 0 -x {3.0 0.0 8 ------- null}
h -t 0.201140571428571 -s 2 -d 0 -p ack -e 40 -c 0 -i 23 -a 0 -x {3.0 0.0 -1 ------- null}
r -t 0.202569142857143 -s 2 -d 3 -p tcp -e 1040 -c 0 -i 15 -a 0 -x {0.0 3.0 9 ------- null}
+ -t 0.202569142857143 -s 3 -d 2 -p ack -e 40 -c 0 -i 26 -a 0 -x {3.0 0.0 9 ------- null}
- -t 0.202569142857143 -s 3 -d 2 -p ack -e 40 -c 0 -i 26 -a 0 -x {3.0 0.0 9 ------- null}
h -t 0.202569142857143 -s 3 -d 2 -p ack -e 40 -c 0 -i 26 -a 0 -x {3.0 0.0 -1 ------- null}
- -t 0.204454857142857 -s 2 -d 3 -p tcp -e 1040 -c 0 -i 18 -a 0 -x {0.0 3.0 11 ------- null}
h -t 0.204454857142857 -s 2 -d 3 -p tcp -e 1040 -c 0 -i 18 -a 0 -x {0.0 3.0 -1 ------- null}
r -t 0.209686857142857 -s 0 -d 2 -p tcp -e 1040 -c 0 -i 24 -a 0 -x {0.0 3.0 15 ------- null}
+ -t 0.209686857142857 -s 2 -d 3 -p tcp -e 1040 -c 0 -i 24 -a 0 -x {0.0 3.0 15 ------- null}
r -t 0.210102857142857 -s 0 -d 2 -p tcp -e 1040 -c 0 -i 25 -a 0 -x {0.0 3.0 16 ------- null}
+ -t 0.210102857142857 -s 2 -d 3 -p tcp -e 1040 -c 0 -i 25 -a 0 -x {0.0 3.0 16 ------- null}
r -t 0.211156571428571 -s 2 -d 0 -p ack -e 40 -c 0 -i 23 -a 0 -x {3.0 0.0 8 ------- null}
+ -t 0.211156571428571 -s 0 -d 2 -p tcp -e 1040 -c 0 -i 27 -a 0 -x {0.0 3.0 17 ------- null}
- -t 0.211156571428571 -s 0 -d 2 -p tcp -e 1040 -c 0 -i 27 -a 0 -x {0.0 3.0 17 ------- null}
h -t 0.211156571428571 -s 0 -d 2 -p tcp -e 1040 -c 0 -i 27 -a 0 -x {0.0 3.0 -1 ------- null}
+ -t 0.211156571428571 -s 0 -d 2 -p tcp -e 1040 -c 0 -i 28 -a 0 -x {0.0 3.0 18 ------- null}
- -t 0.211572571428571 -s 0 -d 2 -p tcp -e 1040 -c 0 -i 28 -a 0 -x {0.0 3.0 18 ------- null}
h -t 0.211572571428571 -s 0 -d 2 -p tcp -e 1040 -c 0 -i 28 -a 0 -x {0.0 3.0 -1 ------- null}
r -t 0.213026285714286 -s 3 -d 2 -p ack -e 40 -c 0 -i 26 -a 0 -x {3.0 0.0 9 ------- null}
+ -t 0.213026285714286 -s 2 -d 0 -p ack -e 40 -c 0 -i 26 -a 0 -x {3.0 0.0 9 ------- null}
- -t 0.213026285714286 -s 2 -d 0 -p ack -e 40 -c 0 -i 26 -a 0 -x {3.0 0.0 9 ------- null}
h -t 0.213026285714286 -s 2 -d 0 -p ack -e 40 -c 0 -i 26 -a 0 -x {3.0 0.0 -1 ------- null}
r -t 0.214454857142857 -s 2 -d 3 -p tcp -e 1040 -c 0 -i 16 -a 0 -x {0.0 3.0 10 ------- null}
+ -t 0.214454857142857 -s 3 -d 2 -p ack -e 40 -c 0 -i 29 -a 0 -x {3.0 0.0 10 ------- null}
- -t 0.214454857142857 -s 3 -d 2 -p ack -e 40 -c 0 -i 29 -a 0 -x {3.0 0.0 10 ------- null}
h -t 0.214454857142857 -s 3 -d 2 -p ack -e 40 -c 0 -i 29 -a 0 -x {3.0 0.0 -1 ------- null}
- -t 0.216340571428571 -s 2 -d 3 -p tcp -e 1040 -c 0 -i 19 -a 0 -x {0.0 3.0 12 ------- null}
h -t 0.216340571428571 -s 2 -d 3 -p tcp -e 1040 -c 0 -i 19 -a 0 -x {0.0 3.0 -1 ------- null}
r -t 0.221572571428571 -s 0 -d 2 -p tcp -e 1040 -c 0 -i 27 -a 0 -x {0.0 3.0 17 ------- null}
+ -t 0.221572571428571 -s 2 -d 3 -p tcp -e 1040 -c 0 -i 27 -a 0 -x {0.0 3.0 17 ------- null}
r -t 0.221988571428571 -s 0 -d 2 -p tcp -e 1040 -c 0 -i 28 -a 0 -x {0.0 3.0 18 ------- null}
+ -t 0.221988571428571 -s 2 -d 3 -p tcp -e 1040 -c 0 -i 28 -a 0 -x {0.0 3.0 18 ------- null}
r -t 0.223042285714286 -s 2 -d 0 -p ack -e 40 -c 0 -i 26 -a 0 -x {3.0 0.0 9 ------- null}
+ -t 0.223042285714286 -s 0 -d 2 -p tcp -e 1040 -c 0 -i 30 -a 0 -x {0.0 3.0 19 ------- null}
- -t 0.223042285714286 -s 0 -d 2 -p tcp -e 1040 -c 0 -i 30 -a 0 -x {0.0 3.0 19 ------- null}
h -t 0.223042285714286 -s 0 -d 2 -p tcp -e 1040 -c 0 -i 30 -a 0 -x {0.0 3.0 -1 ------- null}
+ -t 0.223042285714286 -s 0 -d 2 -p tcp -e 1040 -c 0 -i 31 -a 0 -x {0.0 3.0 20 ------- null}
- -t 0.223458285714286 -s 0 -d 2 -p tcp -e 1040 -c 0 -i 31 -a 0 -x {0.0 3.0 20 ------- null}
h -t 0.223458285714286 -s 0 -d 2 -p tcp -e 1040 -c 0 -i 31 -a 0 -x {0.0 3.0 -1 ------- null}
r -t 0.224912 -s 3 -d 2 -p ack -e 40 -c 0 -i 29 -a 0 -x {3.0 0.0 10 ------- null}
+ -t 0.224912 -s 2 -d 0 -p ack -e 40 -c 0 -i 29 -a 0 -x {3.0 0.0 10 ------- null}
- -t 0.224912 -s 2 -d 0 -p ack -e 40 -c 0 -i 29 -a 0 -x {3.0 0.0 10 ------- null}
h -t 0.224912 -s 2 -d 0 -p ack -e 40 -c 0 -i 29 -a 0 -x {3.0 0.0 -1 ------- null}
r -t 0.226340571428571 -s 2 -d 3 -p tcp -e 1040 -c 0 -i 18 -a 0 -x {0.0 3.0 11 ------- null}
+ -t 0.226340571428571 -s 3 -d 2 -p ack -e 40 -c 0 -i 32 -a 0 -x {3.0 0.0 11 ------- null}
- -t 0.226340571428571 -s 3 -d 2 -p ack -e 40 -c 0 -i 32 -a 0 -x {3.0 0.0 11 ------- null}
h -t 0.226340571428571 -s 3 -d 2 -p ack -e 40 -c 0 -i 32 -a 0 -x {3.0 0.0 -1 ------- null}
- -t 0.228226285714286 -s 2 -d 3 -p tcp -e 1040 -c 0 -i 21 -a 0 -x {0.0 3.0 13 ------- null}
h -t 0.228226285714286 -s 2 -d 3 -p tcp -e 1040 -c 0 -i 21 -a 0 -x {0.0 3.0 -1 ------- null}
r -t 0.233458285714286 -s 0 -d 2 -p tcp -e 1040 -c 0 -i 30 -a 0 -x {0.0 3.0 19 ------- null}
+ -t 0.233458285714286 -s 2 -d 3 -p tcp -e 1040 -c 0 -i 30 -a 0 -x {0.0 3.0 19 ------- null}
r -t 0.233874285714286 -s 0 -d 2 -p tcp -e 1040 -c 0 -i 31 -a 0 -x {0.0 3.0 20 ------- null}
+ -t 0.233874285714286 -s 2 -d 3 -p tcp -e 1040 -c 0 -i 31 -a 0 -x {0.0 3.0 20 ------- null}
r -t 0.234928 -s 2 -d 0 -p ack -e 40 -c 0 -i 29 -a 0 -x {3.0 0.0 10 ------- null}
+ -t 0.234928 -s 0 -d 2 -p tcp -e 1040 -c 0 -i 33 -a 0 -x {0.0 3.0 21 ------- null}
- -t 0.234928 -s 0 -d 2 -p tcp -e 1040 -c 0 -i 33 -a 0 -x {0.0 3.0 21 ------- null}
h -t 0.234928 -s 0 -d 2 -p tcp -e 1040 -c 0 -i 33 -a 0 -x {0.0 3.0 -1 ------- null}
+ -t 0.234928 -s 0 -d 2 -p tcp -e 1040 -c 0 -i 34 -a 0 -x {0.0 3.0 22 ------- null}
- -t 0.235344 -s 0 -d 2 -p tcp -e 1040 -c 0 -i 34 -a 0 -x {0.0 3.0 22 ------- null}
h -t 0.235344 -s 0 -d 2 -p tcp -e 1040 -c 0 -i 34 -a 0 -x {0.0 3.0 -1 ------- null}
r -t 0.236797714285714 -s 3 -d 2 -p ack -e 40 -c 0 -i 32 -a 0 -x {3.0 0.0 11 ------- null}
+ -t 0.236797714285714 -s 2 -d 0 -p ack -e 40 -c 0 -i 32 -a 0 -x {3.0 0.0 11 ------- null}
- -t 0.236797714285714 -s 2 -d 0 -p ack -e 40 -c 0 -i 32 -a 0 -x {3.0 0.0 11 ------- null}
h -t 0.236797714285714 -s 2 -d 0 -p ack -e 40 -c 0 -i 32 -a 0 -x {3.0 0.0 -1 ------- null}
r -t 0.238226285714286 -s 2 -d 3 -p tcp -e 1040 -c 0 -i 19 -a 0 -x {0.0 3.0 12 ------- null}
+ -t 0.238226285714286 -s 3 -d 2 -p ack -e 40 -c 0 -i 35 -a 0 -x {3.0 0.0 12 ------- null}
- -t 0.238226285714286 -s 3 -d 2 -p ack -e 40 -c 0 -i 35 -a 0 -x {3.0 0.0 12 ------- null}
h -t 0.238226285714286 -s 3 -d 2 -p ack -e 40 -c 0 -i 35 -a 0 -x {3.0 0.0 -1 ------- null}
- -t 0.240112 -s 2 -d 3 -p tcp -e 1040 -c 0 -i 22 -a 0 -x {0.0 3.0 14 ------- null}
h -t 0.240112 -s 2 -d 3 -p tcp -e 1040 -c 0 -i 22 -a 0 -x {0.0 3.0 -1 ------- null}
r -t 0.245344 -s 0 -d 2 -p tcp -e 1040 -c 0 -i 33 -a 0 -x {0.0 3.0 21 ------- null}
+ -t 0.245344 -s 2 -d 3 -p tcp -e 1040 -c 0 -i 33 -a 0 -x {0.0 3.0 21 ------- null}
r -t 0.24576 -s 0 -d 2 -p tcp -e 1040 -c 0 -i 34 -a 0 -x {0.0 3.0 22 ------- null}
+ -t 0.24576 -s 2 -d 3 -p tcp -e 1040 -c 0 -i 34 -a 0 -x {0.0 3.0 22 ------- null}
r -t 0.246813714285714 -s 2 -d 0 -p ack -e 40 -c 0 -i 32 -a 0 -x {3.0 0.0 11 ------- null}
+ -t 0.246813714285714 -s 0 -d 2 -p tcp -e 1040 -c 0 -i 36 -a 0 -x {0.0 3.0 23 ------- null}
- -t 0.246813714285714 -s 0 -d 2 -p tcp -e 1040 -c 0 -i 36 -a 0 -x {0.0 3.0 23 ------- null}
h -t 0.246813714285714 -s 0 -d 2 -p tcp -e 1040 -c 0 -i 36 -a 0 -x {0.0 3.0 -1 ------- null}
+ -t 0.246813714285714 -s 0 -d 2 -p tcp -e 1040 -c 0 -i 37 -a 0 -x {0.0 3.0 24 ------- null}
- -t 0.247229714285714 -s 0 -d 2 -p tcp -e 1040 -c 0 -i 37 -a 0 -x {0.0 3.0 24 ------- null}
h -t 0.247229714285714 -s 0 -d 2 -p tcp -e 1040 -c 0 -i 37 -a 0 -x {0.0 3.0 -1 ------- null}
r -t 0.248683428571429 -s 3 -d 2 -p ack -e 40 -c 0 -i 35 -a 0 -x {3.0 0.0 12 ------- null}
+ -t 0.248683428571429 -s 2 -d 0 -p ack -e 40 -c 0 -i 35 -a 0 -x {3.0 0.0 12 ------- null}
- -t 0.248683428571429 -s 2 -d 0 -p ack -e 40 -c 0 -i 35 -a 0 -x {3.0 0.0 12 ------- null}
h -t 0.248683428571429 -s 2 -d 0 -p ack -e 40 -c 0 -i 35 -a 0 -x {3.0 0.0 -1 ------- null}
r -t 0.250112 -s 2 -d 3 -p tcp -e 1040 -c 0 -i 21 -a 0 -x {0.0 3.0 13 ------- null}
+ -t 0.250112 -s 3 -d 2 -p ack -e 40 -c 0 -i 38 -a 0 -x {3.0 0.0 13 ------- null}
- -t 0.250112 -s 3 -d 2 -p ack -e 40 -c 0 -i 38 -a 0 -x {3.0 0.0 13 ------- null}
h -t 0.250112 -s 3 -d 2 -p ack -e 40 -c 0 -i 38 -a 0 -x {3.0 0.0 -1 ------- null}
- -t 0.251997714285714 -s 2 -d 3 -p tcp -e 1040 -c 0 -i 24 -a 0 -x {0.0 3.0 15 ------- null}
h -t 0.251997714285714 -s 2 -d 3 -p tcp -e 1040 -c 0 -i 24 -a 0 -x {0.0 3.0 -1 ------- null}
r -t 0.257229714285714 -s 0 -d 2 -p tcp -e 1040 -c 0 -i 36 -a 0 -x {0.0 3.0 23 ------- null}
+ -t 0.257229714285714 -s 2 -d 3 -p tcp -e 1040 -c 0 -i 36 -a 0 -x {0.0 3.0 23 ------- null}
r -t 0.257645714285714 -s 0 -d 2 -p tcp -e 1040 -c 0 -i 37 -a 0 -x {0.0 3.0 24 ------- null}
+ -t 0.257645714285714 -s 2 -d 3 -p tcp -e 1040 -c 0 -i 37 -a 0 -x {0.0 3.0 24 ------- null}
r -t 0.258699428571429 -s 2 -d 0 -p ack -e 40 -c 0 -i 35 -a 0 -x {3.0 0.0 12 ------- null}
+ -t 0.258699428571429 -s 0 -d 2 -p tcp -e 1040 -c 0 -i 39 -a 0 -x {0.0 3.0 25 ------- null}
- -t 0.258699428571429 -s 0 -d 2 -p tcp -e 1040 -c 0 -i 39 -a 0 -x {0.0 3.0 25 ------- null}
h -t 0.258699428571429 -s 0 -d 2 -p tcp -e 1040 -c 0 -i 39 -a 0 -x {0.0 3.0 -1 ------- null}
+ -t 0.258699428571429 -s 0 -d 2 -p tcp -e 1040 -c 0 -i 40 -a 0 -x {0.0 3.0 26 ------- null}
- -t 0.259115428571429 -s 0 -d 2 -p tcp -e 1040 -c 0 -i 40 -a 0 -x {0.0 3.0 26 ------- null}
h -t 0.259115428571429 -s 0 -d 2 -p tcp -e 1040 -c 0 -i 40 -a 0 -x {0.0 3.0 -1 ------- null}
r -t 0.260569142857143 -s 3 -d 2 -p ack -e 40 -c 0 -i 38 -a 0 -x {3.0 0.0 13 ------- null}
+ -t 0.260569142857143 -s 2 -d 0 -p ack -e 40 -c 0 -i 38 -a 0 -x {3.0 0.0 13 ------- null}
- -t 0.260569142857143 -s 2 -d 0 -p ack -e 40 -c 0 -i 38 -a 0 -x {3.0 0.0 13 ------- null}
h -t 0.260569142857143 -s 2 -d 0 -p ack -e 40 -c 0 -i 38 -a 0 -x {3.0 0.0 -1 ------- null}
r -t 0.261997714285714 -s 2 -d 3 -p tcp -e 1040 -c 0 -i 22 -a 0 -x {0.0 3.0 14 ------- null}
+ -t 0.261997714285714 -s 3 -d 2 -p ack -e 40 -c 0 -i 41 -a 0 -x {3.0 0.0 14 ------- null}
- -t 0.261997714285714 -s 3 -d 2 -p ack -e 40 -c 0 -i 41 -a 0 -x {3.0 0.0 14 ------- null}
h -t 0.261997714285714 -s 3 -d 2 -p ack -e 40 -c 0 -i 41 -a 0 -x {3.0 0.0 -1 ------- null}
- -t 0.263883428571429 -s 2 -d 3 -p tcp -e 1040 -c 0 -i 25 -a 0 -x {0.0 3.0 16 ------- null}
h -t 0.263883428571429 -s 2 -d 3 -p tcp -e 1040 -c 0 -i 25 -a 0 -x {0.0 3.0 -1 ------- null}
r -t 0.269115428571429 -s 0 -d 2 -p tcp -e 1040 -c 0 -i 39 -a 0 -x {0.0 3.0 25 ------- null}
+ -t 0.269115428571429 -s 2 -d 3 -p tcp -e 1040 -c 0 -i 39 -a 0 -x {0.0 3.0 25 ------- null}
r -t 0.269531428571429 -s 0 -d 2 -p tcp -e 1040 -c 0 -i 40 -a 0 -x {0.0 3.0 26 ------- null}
+ -t 0.269531428571429 -s 2 -d 3 -p tcp -e 1040 -c 0 -i 40 -a 0 -x {0.0 3.0 26 ------- null}
r -t 0.270585142857143 -s 2 -d 0 -p ack -e 40 -c 0 -i 38 -a 0 -x {3.0 0.0 13 ------- null}
+ -t 0.270585142857143 -s 0 -d 2 -p tcp -e 1040 -c 0 -i 42 -a 0 -x {0.0 3.0 27 ------- null}
- -t 0.270585142857143 -s 0 -d 2 -p tcp -e 1040 -c 0 -i 42 -a 0 -x {0.0 3.0 27 ------- null}
h -t 0.270585142857143 -s 0 -d 2 -p tcp -e 1040 -c 0 -i 42 -a 0 -x {0.0 3.0 -1 ------- null}
+ -t 0.270585142857143 -s 0 -d 2 -p tcp -e 1040 -c 0 -i 43 -a 0 -x {0.0 3.0 28 ------- null}
- -t 0.271001142857143 -s 0 -d 2 -p tcp -e 1040 -c 0 -i 43 -a 0 -x {0.0 3.0 28 ------- null}
h -t 0.271001142857143 -s 0 -d 2 -p tcp -e 1040 -c 0 -i 43 -a 0 -x {0.0 3.0 -1 ------- null}
r -t 0.272454857142857 -s 3 -d 2 -p ack -e 40 -c 0 -i 41 -a 0 -x {3.0 0.0 14 ------- null}
+ -t 0.272454857142857 -s 2 -d 0 -p ack -e 40 -c 0 -i 41 -a 0 -x {3.0 0.0 14 ------- null}
- -t 0.272454857142857 -s 2 -d 0 -p ack -e 40 -c 0 -i 41 -a 0 -x {3.0 0.0 14 ------- null}
h -t 0.272454857142857 -s 2 -d 0 -p ack -e 40 -c 0 -i 41 -a 0 -x {3.0 0.0 -1 ------- null}
r -t 0.273883428571429 -s 2 -d 3 -p tcp -e 1040 -c 0 -i 24 -a 0 -x {0.0 3.0 15 ------- null}
+ -t 0.273883428571429 -s 3 -d 2 -p ack -e 40 -c 0 -i 44 -a 0 -x {3.0 0.0 15 ------- null}
- -t 0.273883428571429 -s 3 -d 2 -p ack -e 40 -c 0 -i 44 -a 0 -x {3.0 0.0 15 ------- null}
h -t 0.273883428571429 -s 3 -d 2 -p ack -e 40 -c 0 -i 44 -a 0 -x {3.0 0.0 -1 ------- null}
- -t 0.275769142857143 -s 2 -d 3 -p tcp -e 1040 -c 0 -i 27 -a 0 -x {0.0 3.0 17 ------- null}
h -t 0.275769142857143 -s 2 -d 3 -p tcp -e 1040 -c 0 -i 27 -a 0 -x {0.0 3.0 -1 ------- null}
r -t 0.281001142857143 -s 0 -d 2 -p tcp -e 1040 -c 0 -i 42 -a 0 -x {0.0 3.0 27 ------- null}
+ -t 0.281001142857143 -s 2 -d 3 -p tcp -e 1040 -c 0 -i 42 -a 0 -x {0.0 3.0 27 ------- null}
r -t 0.281417142857143 -s 0 -d 2 -p tcp -e 1040 -c 0 -i 43 -a 0 -x {0.0 3.0 28 ------- null}
+ -t 0.281417142857143 -s 2 -d 3 -p tcp -e 1040 -c 0 -i 43 -a 0 -x {0.0 3.0 28 ------- null}
r -t 0.282470857142857 -s 2 -d 0 -p ack -e 40 -c 0 -i 41 -a 0 -x {3.0 0.0 14 ------- null}
+ -t 0.282470857142857 -s 0 -d 2 -p tcp -e 1040 -c 0 -i 45 -a 0 -x {0.0 3.0 29 ------- null}
- -t 0.282470857142857 -s 0 -d 2 -p tcp -e 1040 -c 0 -i 45 -a 0 -x {0.0 3.0 29 ------- null}
h -t 0.282470857142857 -s 0 -d 2 -p tcp -e 1040 -c 0 -i 45 -a 0 -x {0.0 3.0 -1 ------- null}
+ -t 0.282470857142857 -s 0 -d 2 -p tcp -e 1040 -c 0 -i 46 -a 0 -x {0.0 3.0 30 ------- null}
- -t 0.282886857142857 -s 0 -d 2 -p tcp -e 1040 -c 0 -i 46 -a 0 -x {0.0 3.0 30 ------- null}
h -t 0.282886857142857 -s 0 -d 2 -p tcp -e 1040 -c 0 -i 46 -a 0 -x {0.0 3.0 -1 ------- null}
r -t 0.284340571428571 -s 3 -d 2 -p ack -e 40 -c 0 -i 44 -a 0 -x {3.0 0.0 15 ------- null}