+ 0 0 2 tcp 40 ------- 0 0.0 3.0 0 0
- 0 0 2 tcp 40 ------- 0 0.0 3.0 0 0
r 0.010016 0 2 tcp 40 ------- 0 0.0 3.0 0 0
+ 0.010016 2 3 tcp 40 ------- 0 0.0 3.0 0 0
- 0.010016 2 3 tcp 40 ------- 0 0.0 3.0 0 0
r 0.020473 2 3 tcp 40 ------- 0 0.0 3.0 0 0
+ 0.020473 3 2 ack 40 ------- 0 3.0 0.0 0 1
- 0.020473 3 2 ack 40 ------- 0 3.0 0.0 0 1
r 0.03093 3 2 ack 40 ------- 0 3.0 0.0 0 1
+ 0.03093 2 0 ack 40 ------- 0 3.0 0.0 0 1
- 0.03093 2 0 ack 40 ------- 0 3.0 0.0 0 1
r 0.040946 2 0 ack 40 ------- 0 3.0 0.0 0 1
+ 0.040946 0 2 tcp 1040 ------- 0 0.0 3.0 1 2
- 0.040946 0 2 tcp 1040 ------- 0 0.0 3.0 1 2
+ 0.040946 0 2 tcp 1040 ------- 0 0.0 3.0 2 3
- 0.041362 0 2 tcp 1040 ------- 0 0.0 3.0 2 3
r 0.051362 0 2 tcp 1040 ------- 0 0.0 3.0 1 2
+ 0.051362 2 3 tcp 1040 ------- 0 0.0 3.0 1 2
- 0.051362 2 3 tcp 1040 ------- 0 0.0 3.0 1 2
r 0.051778 0 2 tcp 1040 ------- 0 0.0 3.0 2 3
+ 0.051778 2 3 tcp 1040 ------- 0 0.0 3.0 2 3
- 0.063248 2 3 tcp 1040 ------- 0 0.0 3.0 2 3
r 0.073248 2 3 tcp 1040 ------- 0 0.0 3.0 1 2
+ 0.073248 3 2 ack 40 ------- 0 3.0 0.0 1 4
- 0.073248 3 2 ack 40 ------- 0 3.0 0.0 1 4
r 0.083705 3 2 ack 40 ------- 0 3.0 0.0 1 4
+ 0.083705 2 0 ack 40 ------- 0 3.0 0.0 1 4
- 0.083705 2 0 ack 40 ------- 0 3.0 0.0 1 4
r 0.085134 2 3 tcp 1040 ------- 0 0.0 3.0 2 3
+ 0.085134 3 2 ack 40 ------- 0 3.0 0.0 2 5
- 0.085134 3 2 ack 40 ------- 0 3.0 0.0 2 5
r 0.093721 2 0 ack 40 ------- 0 3.0 0.0 1 4
+ 0.093721 0 2 tcp 1040 ------- 0 0.0 3.0 3 6
- 0.093721 0 2 tcp 1040 ------- 0 0.0 3.0 3 6
+ 0.093721 0 2 tcp 1040 ------- 0 0.0 3.0 4 7
- 0.094137 0 2 tcp 1040 ------- 0 0.0 3.0 4 7
r 0.095591 3 2 ack 40 ------- 0 3.0 0.0 2 5
+ 0.095591 2 0 ack 40 ------- 0 3.0 0.0 2 5
- 0.095591 2 0 ack 40 ------- 0 3.0 0.0 2 5
r 0.104137 0 2 tcp 1040 ------- 0 0.0 3.0 3 6
+ 0.104137 2 3 tcp 1040 ------- 0 0.0 3.0 3 6
- 0.104137 2 3 tcp 1040 ------- 0 0.0 3.0 3 6
r 0.104553 0 2 tcp 1040 ------- 0 0.0 3.0 4 7
+ 0.104553 2 3 tcp 1040 ------- 0 0.0 3.0 4 7
r 0.105607 2 0 ack 40 ------- 0 3.0 0.0 2 5
+ 0.105607 0 2 tcp 1040 ------- 0 0.0 3.0 5 8
- 0.105607 0 2 tcp 1040 ------- 0 0.0 3.0 5 8
+ 0.105607 0 2 tcp 1040 ------- 0 0.0 3.0 6 9
- 0.106023 0 2 tcp 1040 ------- 0 0.0 3.0 6 9
r 0.116023 0 2 tcp 1040 ------- 0 0.0 3.0 5 8
+ 0.116023 2 3 tcp 1040 ------- 0 0.0 3.0 5 8
- 0.116023 2 3 tcp 1040 ------- 0 0.0 3.0 4 7
r 0.116439 0 2 tcp 1040 ------- 0 0.0 3.0 6 9
+ 0.116439 2 3 tcp 1040 ------- 0 0.0 3.0 6 9
r 0.126023 2 3 tcp 1040 ------- 0 0.0 3.0 3 6
+ 0.126023 3 2 ack 40 ------- 0 3.0 0.0 3 10
- 0.126023 3 2 ack 40 ------- 0 3.0 0.0 3 10
- 0.127909 2 3 tcp 1040 ------- 0 0.0 3.0 5 8
r 0.13648 3 2 ack 40 ------- 0 3.0 0.0 3 10
+ 0.13648 2 0 ack 40 ------- 0 3.0 0.0 3 10
- 0.13648 2 0 ack 40 ------- 0 3.0 0.0 3 10
r 0.137909 2 3 tcp 1040 ------- 0 0.0 3.0 4 7
+ 0.137909 3 2 ack 40 ------- 0 3.0 0.0 4 11
- 0.137909 3 2 ack 40 ------- 0 3.0 0.0 4 11
- 0.139794 2 3 tcp 1040 ------- 0 0.0 3.0 6 9
r 0.146496 2 0 ack 40 ------- 0 3.0 0.0 3 10
+ 0.146496 0 2 tcp 1040 ------- 0 0.0 3.0 7 12
- 0.146496 0 2 tcp 1040 ------- 0 0.0 3.0 7 12
+ 0.146496 0 2 tcp 1040 ------- 0 0.0 3.0 8 13
- 0.146912 0 2 tcp 1040 ------- 0 0.0 3.0 8 13
r 0.148366 3 2 ack 40 ------- 0 3.0 0.0 4 11
+ 0.148366 2 0 ack 40 ------- 0 3.0 0.0 4 11
- 0.148366 2 0 ack 40 ------- 0 3.0 0.0 4 11
r 0.149794 2 3 tcp 1040 ------- 0 0.0 3.0 5 8
+ 0.149794 3 2 ack 40 ------- 0 3.0 0.0 5 14
- 0.149794 3 2 ack 40 ------- 0 3.0 0.0 5 14
r 0.156912 0 2 tcp 1040 ------- 0 0.0 3.0 7 12
+ 0.156912 2 3 tcp 1040 ------- 0 0.0 3.0 7 12
- 0.156912 2 3 tcp 1040 ------- 0 0.0 3.0 7 12
r 0.157328 0 2 tcp 1040 ------- 0 0.0 3.0 8 13
+ 0.157328 2 3 tcp 1040 ------- 0 0.0 3.0 8 13
r 0.158382 2 0 ack 40 ------- 0 3.0 0.0 4 11
+ 0.158382 0 2 tcp 1040 ------- 0 0.0 3.0 9 15
- 0.158382 0 2 tcp 1040 ------- 0 0.0 3.0 9 15
+ 0.158382 0 2 tcp 1040 ------- 0 0.0 3.0 10 16
- 0.158798 0 2 tcp 1040 ------- 0 0.0 3.0 10 16
r 0.160251 3 2 ack 40 ------- 0 3.0 0.0 5 14
+ 0.160251 2 0 ack 40 ------- 0 3.0 0.0 5 14
- 0.160251 2 0 ack 40 ------- 0 3.0 0.0 5 14
r 0.16168 2 3 tcp 1040 ------- 0 0.0 3.0 6 9
+ 0.16168 3 2 ack 40 ------- 0 3.0 0.0 6 17
- 0.16168 3 2 ack 40 ------- 0 3.0 0.0 6 17
- 0.168798 2 3 tcp 1040 ------- 0 0.0 3.0 8 13
r 0.168798 0 2 tcp 1040 ------- 0 0.0 3.0 9 15
+ 0.168798 2 3 tcp 1040 ------- 0 0.0 3.0 9 15
r 0.169214 0 2 tcp 1040 ------- 0 0.0 3.0 10 16
+ 0.169214 2 3 tcp 1040 ------- 0 0.0 3.0 10 16
r 0.170267 2 0 ack 40 ------- 0 3.0 0.0 5 14
+ 0.170267 0 2 tcp 1040 ------- 0 0.0 3.0 11 18
- 0.170267 0 2 tcp 1040 ------- 0 0.0 3.0 11 18
+ 0.170267 0 2 tcp 1040 ------- 0 0.0 3.0 12 19
- 0.170683 0 2 tcp 1040 ------- 0 0.0 3.0 12 19
r 0.172137 3 2 ack 40 ------- 0 3.0 0.0 6 17
+ 0.172137 2 0 ack 40 ------- 0 3.0 0.0 6 17
- 0.172137 2 0 ack 40 ------- 0 3.0 0.0 6 17
r 0.178798 2 3 tcp 1040 ------- 0 0.0 3.0 7 12
+ 0.178798 3 2 ack 40 ------- 0 3.0 0.0 7 20
- 0.178798 3 2 ack 40 ------- 0 3.0 0.0 7 20
- 0.180683 2 3 tcp 1040 ------- 0 0.0 3.0 9 15
r 0.180683 0 2 tcp 1040 ------- 0 0.0 3.0 11 18
+ 0.180683 2 3 tcp 1040 ------- 0 0.0 3.0 11 18
r 0.181099 0 2 tcp 1040 ------- 0 0.0 3.0 12 19
+ 0.181099 2 3 tcp 1040 ------- 0 0.0 3.0 12 19
r 0.182153 2 0 ack 40 ------- 0 3.0 0.0 6 17
+ 0.182153 0 2 tcp 1040 ------- 0 0.0 3.0 13 21
- 0.182153 0 2 tcp 1040 ------- 0 0.0 3.0 13 21
+ 0.182153 0 2 tcp 1040 ------- 0 0.0 3.0 14 22
- 0.182569 0 2 tcp 1040 ------- 0 0.0 3.0 14 22
r 0.189255 3 2 ack 40 ------- 0 3.0 0.0 7 20
+ 0.189255 2 0 ack 40 ------- 0 3.0 0.0 7 20
- 0.189255 2 0 ack 40 ------- 0 3.0 0.0 7 20
r 0.190683 2 3 tcp 1040 ------- 0 0.0 3.0 8 13
+ 0.190683 3 2 ack 40 ------- 0 3.0 0.0 8 23
- 0.190683 3 2 ack 40 ------- 0 3.0 0.0 8 23
- 0.192569 2 3 tcp 1040 ------- 0 0.0 3.0 10 16
r 0.192569 0 2 tcp 1040 ------- 0 0.0 3.0 13 21
+ 0.192569 2 3 tcp 1040 ------- 0 0.0 3.0 13 21
r 0.192985 0 2 tcp 1040 ------- 0 0.0 3.0 14 22
+ 0.192985 2 3 tcp 1040 ------- 0 0.0 3.0 14 22
r 0.199271 2 0 ack 40 ------- 0 3.0 0.0 7 20
+ 0.199271 0 2 tcp 1040 ------- 0 0.0 3.0 15 24
- 0.199271 0 2 tcp 1040 ------- 0 0.0 3.0 15 24
+ 0.199271 0 2 tcp 1040 ------- 0 0.0 3.0 16 25
- 0.199687 0 2 tcp 1040 ------- 0 0.0 3.0 16 25
r 0.201141 3 2 ack 40 ------- 0 3.0 0.0 8 23
+ 0.201141 2 0 ack 40 ------- 0 3.0 0.0 8 23
- 0.201141 2 0 ack 40 ------- 0 3.0 0.0 8 23
r 0.202569 2 3 tcp 1040 ------- 0 0.0 3.0 9 15
+ 0.202569 3 2 ack 40 ------- 0 3.0 0.0 9 26
- 0.202569 3 2 ack 40 ------- 0 3.0 0.0 9 26
- 0.204455 2 3 tcp 1040 ------- 0 0.0 3.0 11 18
r 0.209687 0 2 tcp 1040 ------- 0 0.0 3.0 15 24
+ 0.209687 2 3 tcp 1040 ------- 0 0.0 3.0 15 24
r 0.210103 0 2 tcp 1040 ------- 0 0.0 3.0 16 25
+ 0.210103 2 3 tcp 1040 ------- 0 0.0 3.0 16 25
r 0.211157 2 0 ack 40 ------- 0 3.0 0.0 8 23
+ 0.211157 0 2 tcp 1040 ------- 0 0.0 3.0 17 27
- 0.211157 0 2 tcp 1040 ------- 0 0.0 3.0 17 27
+ 0.211157 0 2 tcp 1040 ------- 0 0.0 3.0 18 28
- 0.211573 0 2 tcp 1040 ------- 0 0.0 3.0 18 28
r 0.213026 3 2 ack 40 ------- 0 3.0 0.0 9 26
+ 0.213026 2 0 ack 40 ------- 0 3.0 0.0 9 26
- 0.213026 2 0 ack 40 ------- 0 3.0 0.0 9 26
r 0.214455 2 3 tcp 1040 ------- 0 0.0 3.0 10 16
+ 0.214455 3 2 ack 40 ------- 0 3.0 0.0 10 29
- 0.214455 3 2 ack 40 ------- 0 3.0 0.0 10 29
- 0.216341 2 3 tcp 1040 ------- 0 0.0 3.0 12 19
r 0.221573 0 2 tcp 1040 ------- 0 0.0 3.0 17 27
+ 0.221573 2 3 tcp 1040 ------- 0 0.0 3.0 17 27
r 0.221989 0 2 tcp 1040 ------- 0 0.0 3.0 18 28
+ 0.221989 2 3 tcp 1040 ------- 0 0.0 3.0 18 28
r 0.223042 2 0 ack 40 ------- 0 3.0 0.0 9 26
+ 0.223042 0 2 tcp 1040 ------- 0 0.0 3.0 19 30
- 0.223042 0 2 tcp 1040 ------- 0 0.0 3.0 19 30
+ 0.223042 0 2 tcp 1040 ------- 0 0.0 3.0 20 31
- 0.223458 0 2 tcp 1040 ------- 0 0.0 3.0 20 31
r 0.224912 3 2 ack 40 ------- 0 3.0 0.0 10 29
+ 0.224912 2 0 ack 40 ------- 0 3.0 0.0 10 29
- 0.224912 2 0 ack 40 ------- 0 3.0 0.0 10 29
r 0.226341 2 3 tcp 1040 ------- 0 0.0 3.0 11 18
+ 0.226341 3 2 ack 40 ------- 0 3.0 0.0 11 32
- 0.226341 3 2 ack 40 ------- 0 3.0 0.0 11 32
- 0.228226 2 3 tcp 1040 ------- 0 0.0 3.0 13 21
r 0.233458 0 2 tcp 1040 ------- 0 0.0 3.0 19 30
+ 0.233458 2 3 tcp 1040 ------- 0 0.0 3.0 19 30
r 0.233874 0 2 tcp 1040 ------- 0 0.0 3.0 20 31
+ 0.233874 2 3 tcp 1040 ------- 0 0.0 3.0 20 31
r 0.234928 2 0 ack 40 ------- 0 3.0 0.0 10 29
+ 0.234928 0 2 tcp 1040 ------- 0 0.0 3.0 21 33
- 0.234928 0 2 tcp 1040 ------- 0 0.0 3.0 21 33
+ 0.234928 0 2 tcp 1040 ------- 0 0.0 3.0 22 34
- 0.235344 0 2 tcp 1040 ------- 0 0.0 3.0 22 34
r 0.236798 3 2 ack 40 ------- 0 3.0 0.0 11 32
+ 0.236798 2 0 ack 40 ------- 0 3.0 0.0 11 32
- 0.236798 2 0 ack 40 ------- 0 3.0 0.0 11 32
r 0.238226 2 3 tcp 1040 ------- 0 0.0 3.0 12 19
+ 0.238226 3 2 ack 40 ------- 0 3.0 0.0 12 35
- 0.238226 3 2 ack 40 ------- 0 3.0 0.0 12 35
- 0.240112 2 3 tcp 1040 ------- 0 0.0 3.0 14 22
r 0.245344 0 2 tcp 1040 ------- 0 0.0 3.0 21 33
+ 0.245344 2 3 tcp 1040 ------- 0 0.0 3.0 21 33
r 0.24576 0 2 tcp 1040 ------- 0 0.0 3.0 22 34
+ 0.24576 2 3 tcp 1040 ------- 0 0.0 3.0 22 34
r 0.246814 2 0 ack 40 ------- 0 3.0 0.0 11 32
+ 0.246814 0 2 tcp 1040 ------- 0 0.0 3.0 23 36
- 0.246814 0 2 tcp 1040 ------- 0 0.0 3.0 23 36
+ 0.246814 0 2 tcp 1040 ------- 0 0.0 3.0 24 37
- 0.24723 0 2 tcp 1040 ------- 0 0.0 3.0 24 37
r 0.248683 3 2 ack 40 ------- 0 3.0 0.0 12 35
+ 0.248683 2 0 ack 40 ------- 0 3.0 0.0 12 35
- 0.248683 2 0 ack 40 ------- 0 3.0 0.0 12 35
r 0.250112 2 3 tcp 1040 ------- 0 0.0 3.0 13 21
+ 0.250112 3 2 ack 40 ------- 0 3.0 0.0 13 38
- 0.250112 3 2 ack 40 ------- 0 3.0 0.0 13 38
- 0.251998 2 3 tcp 1040 ------- 0 0.0 3.0 15 24
r 0.25723 0 2 tcp 1040 ------- 0 0.0 3.0 23 36
+ 0.25723 2 3 tcp 1040 ------- 0 0.0 3.0 23 36
r 0.257646 0 2 tcp 1040 ------- 0 0.0 3.0 24 37
+ 0.257646 2 3 tcp 1040 ------- 0 0.0 3.0 24 37
r 0.258699 2 0 ack 40 ------- 0 3.0 0.0 12 35
+ 0.258699 0 2 tcp 1040 ------- 0 0.0 3.0 25 39
- 0.258699 0 2 tcp 1040 ------- 0 0.0 3.0 25 39
+ 0.258699 0 2 tcp 1040 ------- 0 0.0 3.0 26 40
- 0.259115 0 2 tcp 1040 ------- 0 0.0 3.0 26 40
r 0.260569 3 2 ack 40 ------- 0 3.0 0.0 13 38
+ 0.260569 2 0 ack 40 ------- 0 3.0 0.0 13 38
- 0.260569 2 0 ack 40 ------- 0 3.0 0.0 13 38
r 0.261998 2 3 tcp 1040 ------- 0 0.0 3.0 14 22
+ 0.261998 3 2 ack 40 ------- 0 3.0 0.0 14 41
- 0.261998 3 2 ack 40 ------- 0 3.0 0.0 14 41
- 0.263883 2 3 tcp 1040 ------- 0 0.0 3.0 16 25
r 0.269115 0 2 tcp 1040 ------- 0 0.0 3.0 25 39
+ 0.269115 2 3 tcp 1040 ------- 0 0.0 3.0 25 39
r 0.269531 0 2 tcp 1040 ------- 0 0.0 3.0 26 40
+ 0.269531 2 3 tcp 1040 ------- 0 0.0 3.0 26 40
r 0.270585 2 0 ack 40 ------- 0 3.0 0.0 13 38
+ 0.270585 0 2 tcp 1040 ------- 0 0.0 3.0 27 42
- 0.270585 0 2 tcp 1040 ------- 0 0.0 3.0 27 42
+ 0.270585 0 2 tcp 1040 ------- 0 0.0 3.0 28 43
- 0.271001 0 2 tcp 1040 ------- 0 0.0 3.0 28 43
r 0.272455 3 2 ack 40 ------- 0 3.0 0.0 14 41
+ 0.272455 2 0 ack 40 ------- 0 3.0 0.0 14 41
- 0.272455 2 0 ack 40 ------- 0 3.0 0.0 14 41
r 0.273883 2 3 tcp 1040 ------- 0 0.0 3.0 15 24
+ 0.273883 3 2 ack 40 ------- 0 3.0 0.0 15 44
- 0.273883 3 2 ack 40 ------- 0 3.0 0.0 15 44
- 0.275769 2 3 tcp 1040 ------- 0 0.0 3.0 17 27
r 0.281001 0 2 tcp 1040 ------- 0 0.0 3.0 27 42
+ 0.281001 2 3 tcp 1040 ------- 0 0.0 3.0 27 42
r 0.281417 0 2 tcp 1040 ------- 0 0.0 3.0 28 43
+ 0.281417 2 3 tcp 1040 ------- 0 0.0 3.0 28 43
r 0.282471 2 0 ack 40 ------- 0 3.0 0.0 14 41
+ 0.282471 0 2 tcp 1040 ------- 0 0.0 3.0 29 45
- 0.282471 0 2 tcp 1040 ------- 0 0.0 3.0 29 45
+ 0.282471 0 2 tcp 1040 ------- 0 0.0 3.0 30 46
- 0.282887 0 2 tcp 1040 ------- 0 0.0 3.0 30 46
r 0.284341 3 2 ack 40 ------- 0 3.0 0.0 15 44
+ 0.284341 2 0 ack 40 ------- 0 3.0 0.0 15 44
- 0.284341 2 0 ack 40 ------- 0 3.0 0.0 15 44
r 0.285769 2 3 tcp 1040 ------- 0 0.0 3.0 16 25
+ 0.285769 3 2 ack 40 ------- 0 3.0 0.0 16 47
- 0.285769 3 2 ack 40 ------- 0 3.0 0.0 16 47
- 0.287655 2 3 tcp 1040 ------- 0 0.0 3.0 18 28
r 0.292887 0 2 tcp 1040 ------- 0 0.0 3.0 29 45
+ 0.292887 2 3 tcp 1040 ------- 0 0.0 3.0 29 45
r 0.293303 0 2 tcp 1040 ------- 0 0.0 3.0 30 46
+ 0.293303 2 3 tcp 1040 ------- 0 0.0 3.0 30 46
r 0.294357 2 0 ack 40 ------- 0 3.0 0.0 15 44
+ 0.294357 0 2 tcp 1040 ------- 0 0.0 3.0 31 48
- 0.294357 0 2 tcp 1040 ------- 0 0.0 3.0 31 48
+ 0.294357 0 2 tcp 1040 ------- 0 0.0 3.0 32 49
- 0.294773 0 2 tcp 1040 ------- 0 0.0 3.0 32 49
r 0.296226 3 2 ack 40 ------- 0 3.0 0.0 16 47
+ 0.296226 2 0 ack 40 ------- 0 3.0 0.0 16 47
- 0.296226 2 0 ack 40 ------- 0 3.0 0.0 16 47
r 0.297655 2 3 tcp 1040 ------- 0 0.0 3.0 17 27
+ 0.297655 3 2 ack 40 ------- 0 3.0 0.0 17 50
- 0.297655 3 2 ack 40 ------- 0 3.0 0.0 17 50
- 0.299541 2 3 tcp 1040 ------- 0 0.0 3.0 19 30
r 0.304773 0 2 tcp 1040 ------- 0 0.0 3.0 31 48
+ 0.304773 2 3 tcp 1040 ------- 0 0.0 3.0 31 48
r 0.305189 0 2 tcp 1040 ------- 0 0.0 3.0 32 49
+ 0.305189 2 3 tcp 1040 ------- 0 0.0 3.0 32 49
r 0.306242 2 0 ack 40 ------- 0 3.0 0.0 16 47
+ 0.306242 0 2 tcp 1040 ------- 0 0.0 3.0 33 51
- 0.306242 0 2 tcp 1040 ------- 0 0.0 3.0 33 51
+ 0.306242 0 2 tcp 1040 ------- 0 0.0 3.0 34 52
- 0.306658 0 2 tcp 1040 ------- 0 0.0 3.0 34 52
r 0.308112 3 2 ack 40 ------- 0 3.0 0.0 17 50
+ 0.308112 2 0 ack 40 ------- 0 3.0 0.0 17 50
- 0.308112 2 0 ack 40 ------- 0 3.0 0.0 17 50
r 0.309541 2 3 tcp 1040 ------- 0 0.0 3.0 18 28
+ 0.309541 3 2 ack 40 ------- 0 3.0 0.0 18 53
- 0.309541 3 2 ack 40 ------- 0 3.0 0.0 18 53
- 0.311426 2 3 tcp 1040 ------- 0 0.0 3.0 20 31
r 0.316658 0 2 tcp 1040 ------- 0 0.0 3.0 33 51
+ 0.316658 2 3 tcp 1040 ------- 0 0.0 3.0 33 51
r 0.317074 0 2 tcp 1040 ------- 0 0.0 3.0 34 52
+ 0.317074 2 3 tcp 1040 ------- 0 0.0 3.0 34 52
r 0.318128 2 0 ack 40 ------- 0 3.0 0.0 17 50
+ 0.318128 0 2 tcp 1040 ------- 0 0.0 3.0 35 54
- 0.318128 0 2 tcp 1040 ------- 0 0.0 3.0 35 54
+ 0.318128 0 2 tcp 1040 ------- 0 0.0 3.0 36 55
- 0.318544 0 2 tcp 1040 ------- 0 0.0 3.0 36 55
r 0.319998 3 2 ack 40 ------- 0 3.0 0.0 18 53
+ 0.319998 2 0 ack 40 ------- 0 3.0 0.0 18 53
- 0.319998 2 0 ack 40 ------- 0 3.0 0.0 18 53
r 0.321426 2 3 tcp 1040 ------- 0 0.0 3.0 19 30
+ 0.321426 3 2 ack 40 ------- 0 3.0 0.0 19 56
- 0.321426 3 2 ack 40 ------- 0 3.0 0.0 19 56
- 0.323312 2 3 tcp 1040 ------- 0 0.0 3.0 21 33
r 0.328544 0 2 tcp 1040 ------- 0 0.0 3.0 35 54
+ 0.328544 2 3 tcp 1040 ------- 0 0.0 3.0 35 54
r 0.32896 0 2 tcp 1040 ------- 0 0.0 3.0 36 55
+ 0.32896 2 3 tcp 1040 ------- 0 0.0 3.0 36 55
r 0.330014 2 0 ack 40 ------- 0 3.0 0.0 18 53
+ 0.330014 0 2 tcp 1040 ------- 0 0.0 3.0 37 57
- 0.330014 0 2 tcp 1040 ------- 0 0.0 3.0 37 57
+ 0.330014 0 2 tcp 1040 ------- 0 0.0 3.0 38 58
- 0.33043 0 2 tcp 1040 ------- 0 0.0 3.0 38 58
r 0.331883 3 2 ack 40 ------- 0 3.0 0.0 19 56
+ 0.331883 2 0 ack 40 ------- 0 3.0 0.0 19 56
- 0.331883 2 0 ack 40 ------- 0 3.0 0.0 19 56
r 0.333312 2 3 tcp 1040 ------- 0 0.0 3.0 20 31
+ 0.333312 3 2 ack 40 ------- 0 3.0 0.0 20 59
- 0.333312 3 2 ack 40 ------- 0 3.0 0.0 20 59
- 0.335198 2 3 tcp 1040 ------- 0 0.0 3.0 22 34
r 0.34043 0 2 tcp 1040 ------- 0 0.0 3.0 37 57
+ 0.34043 2 3 tcp 1040 ------- 0 0.0 3.0 37 57
r 0.340846 0 2 tcp 1040 ------- 0 0.0 3.0 38 58
+ 0.340846 2 3 tcp 1040 ------- 0 0.0 3.0 38 58
r 0.341899 2 0 ack 40 ------- 0 3.0 0.0 19 56
+ 0.341899 0 2 tcp 1040 ------- 0 0.0 3.0 39 60
- 0.341899 0 2 tcp 1040 ------- 0 0.0 3.0 39 60
r 0.343769 3 2 ack 40 ------- 0 3.0 0.0 20 59
+ 0.343769 2 0 ack 40 ------- 0 3.0 0.0 20 59
- 0.343769 2 0 ack 40 ------- 0 3.0 0.0 20 59
r 0.345198 2 3 tcp 1040 ------- 0 0.0 3.0 21 33
+ 0.345198 3 2 ack 40 ------- 0 3.0 0.0 21 61
- 0.345198 3 2 ack 40 ------- 0 3.0 0.0 21 61
- 0.347083 2 3 tcp 1040 ------- 0 0.0 3.0 23 36
r 0.352315 0 2 tcp 1040 ------- 0 0.0 3.0 39 60
+ 0.352315 2 3 tcp 1040 ------- 0 0.0 3.0 39 60
r 0.353785 2 0 ack 40 ------- 0 3.0 0.0 20 59
+ 0.353785 0 2 tcp 1040 ------- 0 0.0 3.0 40 62
- 0.353785 0 2 tcp 1040 ------- 0 0.0 3.0 40 62
r 0.355655 3 2 ack 40 ------- 0 3.0 0.0 21 61
+ 0.355655 2 0 ack 40 ------- 0 3.0 0.0 21 61
- 0.355655 2 0 ack 40 ------- 0 3.0 0.0 21 61
r 0.357083 2 3 tcp 1040 ------- 0 0.0 3.0 22 34
+ 0.357083 3 2 ack 40 ------- 0 3.0 0.0 22 63
- 0.357083 3 2 ack 40 ------- 0 3.0 0.0 22 63
- 0.358969 2 3 tcp 1040 ------- 0 0.0 3.0 24 37
r 0.364201 0 2 tcp 1040 ------- 0 0.0 3.0 40 62
+ 0.364201 2 3 tcp 1040 ------- 0 0.0 3.0 40 62
r 0.365671 2 0 ack 40 ------- 0 3.0 0.0 21 61
+ 0.365671 0 2 tcp 1040 ------- 0 0.0 3.0 41 64
- 0.365671 0 2 tcp 1040 ------- 0 0.0 3.0 41 64
r 0.367541 3 2 ack 40 ------- 0 3.0 0.0 22 63
+ 0.367541 2 0 ack 40 ------- 0 3.0 0.0 22 63
- 0.367541 2 0 ack 40 ------- 0 3.0 0.0 22 63
r 0.368969 2 3 tcp 1040 ------- 0 0.0 3.0 23 36
+ 0.368969 3 2 ack 40 ------- 0 3.0 0.0 23 65
- 0.368969 3 2 ack 40 ------- 0 3.0 0.0 23 65
- 0.370855 2 3 tcp 1040 ------- 0 0.0 3.0 25 39
r 0.376087 0 2 tcp 1040 ------- 0 0.0 3.0 41 64
+ 0.376087 2 3 tcp 1040 ------- 0 0.0 3.0 41 64
r 0.377557 2 0 ack 40 ------- 0 3.0 0.0 22 63
+ 0.377557 0 2 tcp 1040 ------- 0 0.0 3.0 42 66
- 0.377557 0 2 tcp 1040 ------- 0 0.0 3.0 42 66
r 0.379426 3 2 ack 40 ------- 0 3.0 0.0 23 65
+ 0.379426 2 0 ack 40 ------- 0 3.0 0.0 23 65
- 0.379426 2 0 ack 40 ------- 0 3.0 0.0 23 65
r 0.380855 2 3 tcp 1040 ------- 0 0.0 3.0 24 37
+ 0.380855 3 2 ack 40 ------- 0 3.0 0.0 24 67
- 0.380855 3 2 ack 40 ------- 0 3.0 0.0 24 67
- 0.382741 2 3 tcp 1040 ------- 0 0.0 3.0 26 40
r 0.387973 0 2 tcp 1040 ------- 0 0.0 3.0 42 66
+ 0.387973 2 3 tcp 1040 ------- 0 0.0 3.0 42 66
r 0.389442 2 0 ack 40 ------- 0 3.0 0.0 23 65
+ 0.389442 0 2 tcp 1040 ------- 0 0.0 3.0 43 68
- 0.389442 0 2 tcp 1040 ------- 0 0.0 3.0 43 68
r 0.391312 3 2 ack 40 ------- 0 3.0 0.0 24 67
+ 0.391312 2 0 ack 40 ------- 0 3.0 0.0 24 67
- 0.391312 2 0 ack 40 ------- 0 3.0 0.0 24 67
r 0.392741 2 3 tcp 1040 ------- 0 0.0 3.0 25 39
+ 0.392741 3 2 ack 40 ------- 0 3.0 0.0 25 69
- 0.392741 3 2 ack 40 ------- 0 3.0 0.0 25 69
- 0.394626 2 3 tcp 1040 ------- 0 0.0 3.0 27 42
r 0.399858 0 2 tcp 1040 ------- 0 0.0 3.0 43 68
+ 0.399858 2 3 tcp 1040 ------- 0 0.0 3.0 43 68
r 0.401328 2 0 ack 40 ------- 0 3.0 0.0 24 67
+ 0.401328 0 2 tcp 1040 ------- 0 0.0 3.0 44 70
- 0.401328 0 2 tcp 1040 ------- 0 0.0 3.0 44 70
r 0.403198 3 2 ack 40 ------- 0 3.0 0.0 25 69
+ 0.403198 2 0 ack 40 ------- 0 3.0 0.0 25 69
- 0.403198 2 0 ack 40 ------- 0 3.0 0.0 25 69
r 0.404626 2 3 tcp 1040 ------- 0 0.0 3.0 26 40
+ 0.404626 3 2 ack 40 ------- 0 3.0 0.0 26 71
- 0.404626 3 2 ack 40 ------- 0 3.0 0.0 26 71
- 0.406512 2 3 tcp 1040 ------- 0 0.0 3.0 28 43
r 0.411744 0 2 tcp 1040 ------- 0 0.0 3.0 44 70
+ 0.411744 2 3 tcp 1040 ------- 0 0.0 3.0 44 70
r 0.413214 2 0 ack 40 ------- 0 3.0 0.0 25 69
+ 0.413214 0 2 tcp 1040 ------- 0 0.0 3.0 45 72
- 0.413214 0 2 tcp 1040 ------- 0 0.0 3.0 45 72
r 0.415083 3 2 ack 40 ------- 0 3.0 0.0 26 71
+ 0.415083 2 0 ack 40 ------- 0 3.0 0.0 26 71
- 0.415083 2 0 ack 40 ------- 0 3.0 0.0 26 71
r 0.416512 2 3 tcp 1040 ------- 0 0.0 3.0 27 42
+ 0.416512 3 2 ack 40 ------- 0 3.0 0.0 27 73
- 0.416512 3 2 ack 40 ------- 0 3.0 0.0 27 73
- 0.418398 2 3 tcp 1040 ------- 0 0.0 3.0 29 45
r 0.42363 0 2 tcp 1040 ------- 0 0.0 3.0 45 72
+ 0.42363 2 3 tcp 1040 ------- 0 0.0 3.0 45 72
r 0.425099 2 0 ack 40 ------- 0 3.0 0.0 26 71
+ 0.425099 0 2 tcp 1040 ------- 0 0.0 3.0 46 74
- 0.425099 0 2 tcp 1040 ------- 0 0.0 3.0 46 74
r 0.426969 3 2 ack 40 ------- 0 3.0 0.0 27 73
+ 0.426969 2 0 ack 40 ------- 0 3.0 0.0 27 73
- 0.426969 2 0 ack 40 ------- 0 3.0 0.0 27 73
r 0.428398 2 3 tcp 1040 ------- 0 0.0 3.0 28 43
+ 0.428398 3 2 ack 40 ------- 0 3.0 0.0 28 75
- 0.428398 3 2 ack 40 ------- 0 3.0 0.0 28 75
- 0.430283 2 3 tcp 1040 ------- 0 0.0 3.0 30 46
r 0.435515 0 2 tcp 1040 ------- 0 0.0 3.0 46 74
+ 0.435515 2 3 tcp 1040 ------- 0 0.0 3.0 46 74
r 0.436985 2 0 ack 40 ------- 0 3.0 0.0 27 73
+ 0.436985 0 2 tcp 1040 ------- 0 0.0 3.0 47 76
- 0.436985 0 2 tcp 1040 ------- 0 0.0 3.0 47 76
r 0.438855 3 2 ack 40 ------- 0 3.0 0.0 28 75
+ 0.438855 2 0 ack 40 ------- 0 3.0 0.0 28 75
- 0.438855 2 0 ack 40 ------- 0 3.0 0.0 28 75
r 0.440283 2 3 tcp 1040 ------- 0 0.0 3.0 29 45
+ 0.440283 3 2 ack 40 ------- 0 3.0 0.0 29 77
- 0.440283 3 2 ack 40 ------- 0 3.0 0.0 29 77
- 0.442169 2 3 tcp 1040 ------- 0 0.0 3.0 31 48
r 0.447401 0 2 tcp 1040 ------- 0 0.0 3.0 47 76
+ 0.447401 2 3 tcp 1040 ------- 0 0.0 3.0 47 76
r 0.448871 2 0 ack 40 ------- 0 3.0 0.0 28 75
+ 0.448871 0 2 tcp 1040 ------- 0 0.0 3.0 48 78
- 0.448871 0 2 tcp 1040 ------- 0 0.0 3.0 48 78
r 0.450741 3 2 ack 40 ------- 0 3.0 0.0 29 77
+ 0.450741 2 0 ack 40 ------- 0 3.0 0.0 29 77
- 0.450741 2 0 ack 40 ------- 0 3.0 0.0 29 77
r 0.452169 2 3 tcp 1040 ------- 0 0.0 3.0 30 46
+ 0.452169 3 2 ack 40 ------- 0 3.0 0.0 30 79
- 0.452169 3 2 ack 40 ------- 0 3.0 0.0 30 79
- 0.454055 2 3 tcp 1040 ------- 0 0.0 3.0 32 49
r 0.459287 0 2 tcp 1040 ------- 0 0.0 3.0 48 78
+ 0.459287 2 3 tcp 1040 ------- 0 0.0 3.0 48 78
r 0.460757 2 0 ack 40 ------- 0 3.0 0.0 29 77
+ 0.460757 0 2 tcp 1040 ------- 0 0.0 3.0 49 80
- 0.460757 0 2 tcp 1040 ------- 0 0.0 3.0 49 80
r 0.462626 3 2 ack 40 ------- 0 3.0 0.0 30 79
+ 0.462626 2 0 ack 40 ------- 0 3.0 0.0 30 79
- 0.462626 2 0 ack 40 ------- 0 3.0 0.0 30 79
r 0.464055 2 3 tcp 1040 ------- 0 0.0 3.0 31 48
+ 0.464055 3 2 ack 40 ------- 0 3.0 0.0 31 81
- 0.464055 3 2 ack 40 ------- 0 3.0 0.0 31 81
- 0.465941 2 3 tcp 1040 ------- 0 0.0 3.0 33 51
r 0.471173 0 2 tcp 1040 ------- 0 0.0 3.0 49 80
+ 0.471173 2 3 tcp 1040 ------- 0 0.0 3.0 49 80
r 0.472642 2 0 ack 40 ------- 0 3.0 0.0 30 79
+ 0.472642 0 2 tcp 1040 ------- 0 0.0 3.0 50 82
- 0.472642 0 2 tcp 1040 ------- 0 0.0 3.0 50 82
r 0.474512 3 2 ack 40 ------- 0 3.0 0.0 31 81
+ 0.474512 2 0 ack 40 ------- 0 3.0 0.0 31 81
- 0.474512 2 0 ack 40 ------- 0 3.0 0.0 31 81
r 0.475941 2 3 tcp 1040 ------- 0 0.0 3.0 32 49
+ 0.475941 3 2 ack 40 ------- 0 3.0 0.0 32 83
- 0.475941 3 2 ack 40 ------- 0 3.0 0.0 32 83
- 0.477826 2 3 tcp 1040 ------- 0 0.0 3.0 34 52
r 0.483058 0 2 tcp 1040 ------- 0 0.0 3.0 50 82
+ 0.483058 2 3 tcp 1040 ------- 0 0.0 3.0 50 82
r 0.484528 2 0 ack 40 ------- 0 3.0 0.0 31 81
+ 0.484528 0 2 tcp 1040 ------- 0 0.0 3.0 51 84
- 0.484528 0 2 tcp 1040 ------- 0 0.0 3.0 51 84
r 0.486398 3 2 ack 40 ------- 0 3.0 0.0 32 83
+ 0.486398 2 0 ack 40 ------- 0 3.0 0.0 32 83
- 0.486398 2 0 ack 40 ------- 0 3.0 0.0 32 83
r 0.487826 2 3 tcp 1040 ------- 0 0.0 3.0 33 51
+ 0.487826 3 2 ack 40 ------- 0 3.0 0.0 33 85
- 0.487826 3 2 ack 40 ------- 0 3.0 0.0 33 85
- 0.489712 2 3 tcp 1040 ------- 0 0.0 3.0 35 54
r 0.494944 0 2 tcp 1040 ------- 0 0.0 3.0 51 84
+ 0.494944 2 3 tcp 1040 ------- 0 0.0 3.0 51 84
r 0.496414 2 0 ack 40 ------- 0 3.0 0.0 32 83
+ 0.496414 0 2 tcp 1040 ------- 0 0.0 3.0 52 86
- 0.496414 0 2 tcp 1040 ------- 0 0.0 3.0 52 86
r 0.498283 3 2 ack 40 ------- 0 3.0 0.0 33 85
+ 0.498283 2 0 ack 40 ------- 0 3.0 0.0 33 85
- 0.498283 2 0 ack 40 ------- 0 3.0 0.0 33 85
r 0.499712 2 3 tcp 1040 ------- 0 0.0 3.0 34 52
+ 0.499712 3 2 ack 40 ------- 0 3.0 0.0 34 87
- 0.499712 3 2 ack 40 ------- 0 3.0 0.0 34 87
- 0.501598 2 3 tcp 1040 ------- 0 0.0 3.0 36 55
r 0.50683 0 2 tcp 1040 ------- 0 0.0 3.0 52 86
+ 0.50683 2 3 tcp 1040 ------- 0 0.0 3.0 52 86
r 0.508299 2 0 ack 40 ------- 0 3.0 0.0 33 85
+ 0.508299 0 2 tcp 1040 ------- 0 0.0 3.0 53 88
- 0.508299 0 2 tcp 1040 ------- 0 0.0 3.0 53 88
r 0.510169 3 2 ack 40 ------- 0 3.0 0.0 34 87
+ 0.510169 2 0 ack 40 ------- 0 3.0 0.0 34 87
- 0.510169 2 0 ack 40 ------- 0 3.0 0.0 34 87
r 0.511598 2 3 tcp 1040 ------- 0 0.0 3.0 35 54
+ 0.511598 3 2 ack 40 ------- 0 3.0 0.0 35 89
- 0.511598 3 2 ack 40 ------- 0 3.0 0.0 35 89
- 0.513483 2 3 tcp 1040 ------- 0 0.0 3.0 37 57
r 0.518715 0 2 tcp 1040 ------- 0 0.0 3.0 53 88
+ 0.518715 2 3 tcp 1040 ------- 0 0.0 3.0 53 88
r 0.520185 2 0 ack 40 ------- 0 3.0 0.0 34 87
+ 0.520185 0 2 tcp 1040 ------- 0 0.0 3.0 54 90
- 0.520185 0 2 tcp 1040 ------- 0 0.0 3.0 54 90
r 0.522055 3 2 ack 40 ------- 0 3.0 0.0 35 89
+ 0.522055 2 0 ack 40 ------- 0 3.0 0.0 35 89
- 0.522055 2 0 ack 40 ------- 0 3.0 0.0 35 89
r 0.523483 2 3 tcp 1040 ------- 0 0.0 3.0 36 55
+ 0.523483 3 2 ack 40 ------- 0 3.0 0.0 36 91
- 0.523483 3 2 ack 40 ------- 0 3.0 0.0 36 91
- 0.525369 2 3 tcp 1040 ------- 0 0.0 3.0 38 58
r 0.530601 0 2 tcp 1040 ------- 0 0.0 3.0 54 90
+ 0.530601 2 3 tcp 1040 ------- 0 0.0 3.0 54 90
r 0.532071 2 0 ack 40 ------- 0 3.0 0.0 35 89
+ 0.532071 0 2 tcp 1040 ------- 0 0.0 3.0 55 92
- 0.532071 0 2 tcp 1040 ------- 0 0.0 3.0 55 92
r 0.533941 3 2 ack 40 ------- 0 3.0 0.0 36 91
+ 0.533941 2 0 ack 40 ------- 0 3.0 0.0 36 91
- 0.533941 2 0 ack 40 ------- 0 3.0 0.0 36 91
r 0.535369 2 3 tcp 1040 ------- 0 0.0 3.0 37 57
+ 0.535369 3 2 ack 40 ------- 0 3.0 0.0 37 93
- 0.535369 3 2 ack 40 ------- 0 3.0 0.0 37 93
- 0.537255 2 3 tcp 1040 ------- 0 0.0 3.0 39 60
r 0.542487 0 2 tcp 1040 ------- 0 0.0 3.0 55 92
+ 0.542487 2 3 tcp 1040 ------- 0 0.0 3.0 55 92
r 0.543957 2 0 ack 40 ------- 0 3.0 0.0 36 91
+ 0.543957 0 2 tcp 1040 ------- 0 0.0 3.0 56 94
- 0.543957 0 2 tcp 1040 ------- 0 0.0 3.0 56 94
r 0.545826 3 2 ack 40 ------- 0 3.0 0.0 37 93
+ 0.545826 2 0 ack 40 ------- 0 3.0 0.0 37 93
- 0.545826 2 0 ack 40 ------- 0 3.0 0.0 37 93
r 0.547255 2 3 tcp 1040 ------- 0 0.0 3.0 38 58
+ 0.547255 3 2 ack 40 ------- 0 3.0 0.0 38 95
- 0.547255 3 2 ack 40 ------- 0 3.0 0.0 38 95
- 0.549141 2 3 tcp 1040 ------- 0 0.0 3.0 40 62
r 0.554373 0 2 tcp 1040 ------- 0 0.0 3.0 56 94
+ 0.554373 2 3 tcp 1040 ------- 0 0.0 3.0 56 94
r 0.555842 2 0 ack 40 ------- 0 3.0 0.0 37 93
+ 0.555842 0 2 tcp 1040 ------- 0 0.0 3.0 57 96
- 0.555842 0 2 tcp 1040 ------- 0 0.0 3.0 57 96
r 0.557712 3 2 ack 40 ------- 0 3.0 0.0 38 95
+ 0.557712 2 0 ack 40 ------- 0 3.0 0.0 38 95
- 0.557712 2 0 ack 40 ------- 0 3.0 0.0 38 95
r 0.559141 2 3 tcp 1040 ------- 0 0.0 3.0 39 60
+ 0.559141 3 2 ack 40 ------- 0 3.0 0.0 39 97
- 0.559141 3 2 ack 40 ------- 0 3.0 0.0 39 97
- 0.561026 2 3 tcp 1040 ------- 0 0.0 3.0 41 64
r 0.566258 0 2 tcp 1040 ------- 0 0.0 3.0 57 96
+ 0.566258 2 3 tcp 1040 ------- 0 0.0 3.0 57 96
r 0.567728 2 0 ack 40 ------- 0 3.0 0.0 38 95
+ 0.567728 0 2 tcp 1040 ------- 0 0.0 3.0 58 98
- 0.567728 0 2 tcp 1040 ------- 0 0.0 3.0 58 98
r 0.569598 3 2 ack 40 ------- 0 3.0 0.0 39 97
+ 0.569598 2 0 ack 40 ------- 0 3.0 0.0 39 97
- 0.569598 2 0 ack 40 ------- 0 3.0 0.0 39 97
r 0.571026 2 3 tcp 1040 ------- 0 0.0 3.0 40 62
+ 0.571026 3 2 ack 40 ------- 0 3.0 0.0 40 99
- 0.571026 3 2 ack 40 ------- 0 3.0 0.0 40 99
- 0.572912 2 3 tcp 1040 ------- 0 0.0 3.0 42 66
r 0.578144 0 2 tcp 1040 ------- 0 0.0 3.0 58 98
+ 0.578144 2 3 tcp 1040 ------- 0 0.0 3.0 58 98
r 0.579614 2 0 ack 40 ------- 0 3.0 0.0 39 97
+ 0.579614 0 2 tcp 1040 ------- 0 0.0 3.0 59 100
- 0.579614 0 2 tcp 1040 ------- 0 0.0 3.0 59 100
r 0.581483 3 2 ack 40 ------- 0 3.0 0.0 40 99
+ 0.581483 2 0 ack 40 ------- 0 3.0 0.0 40 99
- 0.581483 2 0 ack 40 ------- 0 3.0 0.0 40 99
r 0.582912 2 3 tcp 1040 ------- 0 0.0 3.0 41 64
+ 0.582912 3 2 ack 40 ------- 0 3.0 0.0 41 101
- 0.582912 3 2 ack 40 ------- 0 3.0 0.0 41 101
- 0.584798 2 3 tcp 1040 ------- 0 0.0 3.0 43 68
r 0.59003 0 2 tcp 1040 ------- 0 0.0 3.0 59 100
+ 0.59003 2 3 tcp 1040 ------- 0 0.0 3.0 59 100
r 0.591499 2 0 ack 40 ------- 0 3.0 0.0 40 99
+ 0.591499 0 2 tcp 1040 ------- 0 0.0 3.0 60 102
- 0.591499 0 2 tcp 1040 ------- 0 0.0 3.0 60 102
r 0.593369 3 2 ack 40 ------- 0 3.0 0.0 41 101
+ 0.593369 2 0 ack 40 ------- 0 3.0 0.0 41 101
- 0.593369 2 0 ack 40 ------- 0 3.0 0.0 41 101
r 0.594798 2 3 tcp 1040 ------- 0 0.0 3.0 42 66
+ 0.594798 3 2 ack 40 ------- 0 3.0 0.0 42 103
- 0.594798 3 2 ack 40 ------- 0 3.0 0.0 42 103
- 0.596683 2 3 tcp 1040 ------- 0 0.0 3.0 44 70
r 0.601915 0 2 tcp 1040 ------- 0 0.0 3.0 60 102
+ 0.601915 2 3 tcp 1040 ------- 0 0.0 3.0 60 102
r 0.603385 2 0 ack 40 ------- 0 3.0 0.0 41 101
+ 0.603385 0 2 tcp 1040 ------- 0 0.0 3.0 61 104
- 0.603385 0 2 tcp 1040 ------- 0 0.0 3.0 61 104
r 0.605255 3 2 ack 40 ------- 0 3.0 0.0 42 103
+ 0.605255 2 0 ack 40 ------- 0 3.0 0.0 42 103
- 0.605255 2 0 ack 40 ------- 0 3.0 0.0 42 103
r 0.606683 2 3 tcp 1040 ------- 0 0.0 3.0 43 68
+ 0.606683 3 2 ack 40 ------- 0 3.0 0.0 43 105
- 0.606683 3 2 ack 40 ------- 0 3.0 0.0 43 105
- 0.608569 2 3 tcp 1040 ------- 0 0.0 3.0 45 72
r 0.613801 0 2 tcp 1040 ------- 0 0.0 3.0 61 104
+ 0.613801 2 3 tcp 1040 ------- 0 0.0 3.0 61 104
r 0.615271 2 0 ack 40 ------- 0 3.0 0.0 42 103
+ 0.615271 0 2 tcp 1040 ------- 0 0.0 3.0 62 106
- 0.615271 0 2 tcp 1040 ------- 0 0.0 3.0 62 106
r 0.617141 3 2 ack 40 ------- 0 3.0 0.0 43 105
+ 0.617141 2 0 ack 40 ------- 0 3.0 0.0 43 105
- 0.617141 2 0 ack 40 ------- 0 3.0 0.0 43 105
r 0.618569 2 3 tcp 1040 ------- 0 0.0 3.0 44 70
+ 0.618569 3 2 ack 40 ------- 0 3.0 0.0 44 107
- 0.618569 3 2 ack 40 ------- 0 3.0 0.0 44 107
- 0.620455 2 3 tcp 1040 ------- 0 0.0 3.0 46 74
r 0.625687 0 2 tcp 1040 ------- 0 0.0 3.0 62 106
+ 0.625687 2 3 tcp 1040 ------- 0 0.0 3.0 62 106
r 0.627157 2 0 ack 40 ------- 0 3.0 0.0 43 105
+ 0.627157 0 2 tcp 1040 ------- 0 0.0 3.0 63 108
- 0.627157 0 2 tcp 1040 ------- 0 0.0 3.0 63 108
r 0.629026 3 2 ack 40 ------- 0 3.0 0.0 44 107
+ 0.629026 2 0 ack 40 ------- 0 3.0 0.0 44 107
- 0.629026 2 0 ack 40 ------- 0 3.0 0.0 44 107
r 0.630455 2 3 tcp 1040 ------- 0 0.0 3.0 45 72
+ 0.630455 3 2 ack 40 ------- 0 3.0 0.0 45 109
- 0.630455 3 2 ack 40 ------- 0 3.0 0.0 45 109
- 0.632341 2 3 tcp 1040 ------- 0 0.0 3.0 47 76
r 0.637573 0 2 tcp 1040 ------- 0 0.0 3.0 63 108
+ 0.637573 2 3 tcp 1040 ------- 0 0.0 3.0 63 108
r 0.639042 2 0 ack 40 ------- 0 3.0 0.0 44 107
+ 0.639042 0 2 tcp 1040 ------- 0 0.0 3.0 64 110
- 0.639042 0 2 tcp 1040 ------- 0 0.0 3.0 64 110
r 0.640912 3 2 ack 40 ------- 0 3.0 0.0 45 109
+ 0.640912 2 0 ack 40 ------- 0 3.0 0.0 45 109
- 0.640912 2 0 ack 40 ------- 0 3.0 0.0 45 109
r 0.642341 2 3 tcp 1040 ------- 0 0.0 3.0 46 74
+ 0.642341 3 2 ack 40 ------- 0 3.0 0.0 46 111
- 0.642341 3 2 ack 40 ------- 0 3.0 0.0 46 111
- 0.644226 2 3 tcp 1040 ------- 0 0.0 3.0 48 78
r 0.649458 0 2 tcp 1040 ------- 0 0.0 3.0 64 110
+ 0.649458 2 3 tcp 1040 ------- 0 0.0 3.0 64 110
r 0.650928 2 0 ack 40 ------- 0 3.0 0.0 45 109
+ 0.650928 0 2 tcp 1040 ------- 0 0.0 3.0 65 112
- 0.650928 0 2 tcp 1040 ------- 0 0.0 3.0 65 112
r 0.652798 3 2 ack 40 ------- 0 3.0 0.0 46 111
+ 0.652798 2 0 ack 40 ------- 0 3.0 0.0 46 111
- 0.652798 2 0 ack 40 ------- 0 3.0 0.0 46 111
r 0.654226 2 3 tcp 1040 ------- 0 0.0 3.0 47 76